/*--------------------------------*- C++ -*----------------------------------*\
| =========                 |                                                 |
| \\      /  F ield         | OpenFOAM: The Open Source CFD Toolbox           |
|  \\    /   O peration     | Version:  2512                                  |
|   \\  /    A nd           | Website:  www.openfoam.com                      |
|    \\/     M anipulation  |                                                 |
\*---------------------------------------------------------------------------*/
FoamFile
{
    version     2.0;
    format      ascii;
    arch        "LSB;label=32;scalar=64";
    class       surfaceScalarField;
    location    "0.16";
    object      phi;
}
// * * * * * * * * * * * * * * * * * * * * * * * * * * * * * * * * * * * * * //

dimensions      [0 3 -1 0 0 0 0];

oriented        oriented;

internalField   nonuniform List<scalar> 
19800
(
5.98943e-11
-5.98972e-11
1.62337e-10
-1.02453e-10
2.42626e-10
-8.02762e-11
2.63832e-10
-2.12242e-11
2.10571e-10
5.325e-11
7.83693e-11
1.32198e-10
-1.32103e-10
2.10469e-10
-4.17294e-10
2.85183e-10
-7.72151e-10
3.5486e-10
-1.19086e-09
4.18714e-10
-1.66734e-09
4.76474e-10
-2.19547e-09
5.28134e-10
-2.76924e-09
5.73765e-10
-3.38288e-09
6.13629e-10
-4.03086e-09
6.47992e-10
-4.70799e-09
6.77139e-10
-5.40939e-09
7.01412e-10
-6.1305e-09
7.21118e-10
-6.86708e-09
7.36572e-10
-7.6152e-09
7.48119e-10
-8.37124e-09
7.56039e-10
-9.13182e-09
7.60568e-10
-9.89381e-09
7.61986e-10
-1.06544e-08
7.60559e-10
-1.14108e-08
7.56471e-10
-1.21607e-08
7.49898e-10
-1.29018e-08
7.41038e-10
-1.36318e-08
7.30051e-10
-1.43489e-08
7.17067e-10
-1.50511e-08
7.02197e-10
-1.57367e-08
6.85556e-10
-1.64039e-08
6.6724e-10
-1.70512e-08
6.47308e-10
-1.7677e-08
6.25811e-10
-1.82798e-08
6.02808e-10
-1.88582e-08
5.78367e-10
-1.94107e-08
5.52522e-10
-1.9936e-08
5.25278e-10
-2.04327e-08
4.96652e-10
-2.08993e-08
4.66677e-10
-2.13347e-08
4.35387e-10
-2.17375e-08
4.02799e-10
-2.21065e-08
3.6893e-10
-2.24403e-08
3.338e-10
-2.27377e-08
2.97437e-10
-2.29976e-08
2.59875e-10
-2.32187e-08
2.21147e-10
-2.34e-08
1.81295e-10
-2.35404e-08
1.40379e-10
-2.36389e-08
9.84695e-11
-2.36945e-08
5.56349e-11
-2.37064e-08
1.19459e-11
-2.36739e-08
-3.25085e-11
-2.35963e-08
-7.7617e-11
-2.34731e-08
-1.23252e-10
-2.33038e-08
-1.6928e-10
-2.30882e-08
-2.1556e-10
-2.28263e-08
-2.61939e-10
-2.2518e-08
-3.0825e-10
-2.21637e-08
-3.54302e-10
-2.17639e-08
-3.99889e-10
-2.1319e-08
-4.44807e-10
-2.08302e-08
-4.88847e-10
-2.02984e-08
-5.31778e-10
-1.97251e-08
-5.73354e-10
-1.91117e-08
-6.13327e-10
-1.84603e-08
-6.51446e-10
-1.77728e-08
-6.87453e-10
-1.70518e-08
-7.21083e-10
-1.62997e-08
-7.52069e-10
-1.55195e-08
-7.80149e-10
-1.47145e-08
-8.05058e-10
-1.38879e-08
-8.26538e-10
-1.30436e-08
-8.44334e-10
-1.21854e-08
-8.58201e-10
-1.13175e-08
-8.67901e-10
-1.04443e-08
-8.73204e-10
-9.57041e-09
-8.73889e-10
-8.70066e-09
-8.69755e-10
-7.84003e-09
-8.60621e-10
-6.99371e-09
-8.46324e-10
-6.167e-09
-8.26712e-10
-5.36534e-09
-8.0166e-10
-4.59427e-09
-7.71074e-10
-3.85938e-09
-7.34884e-10
-3.16633e-09
-6.93051e-10
-2.52077e-09
-6.45566e-10
-1.9283e-09
-5.92469e-10
-1.39444e-09
-5.33857e-10
-9.24527e-10
-4.69912e-10
-5.2359e-10
-4.00936e-10
-1.96167e-10
-3.27422e-10
5.39912e-11
-2.50157e-10
2.2441e-10
-1.70418e-10
3.1469e-10
-9.02803e-11
3.27973e-10
-1.32842e-11
2.73353e-10
5.46207e-11
1.70455e-10
1.029e-10
5.77853e-11
1.12669e-10
5.77824e-11
1.00216e-10
-1.60123e-10
2.23789e-10
-2.2603e-10
2.6863e-10
-1.25119e-10
1.71463e-10
7.59714e-11
-1.03015e-10
3.27721e-10
-5.70726e-10
5.99933e-10
-1.23481e-09
8.7456e-10
-2.09056e-09
1.14093e-09
-3.12834e-09
1.39264e-09
-4.33562e-09
1.62599e-09
-5.69828e-09
1.83913e-09
-7.20138e-09
2.03124e-09
-8.82986e-09
2.20224e-09
-1.05688e-08
2.35255e-09
-1.24037e-08
2.48287e-09
-1.43206e-08
2.5941e-09
-1.63065e-08
2.68724e-09
-1.83487e-08
2.76332e-09
-2.04355e-08
2.82343e-09
-2.25561e-08
2.86867e-09
-2.47001e-08
2.90004e-09
-2.6858e-08
2.91848e-09
-2.9021e-08
2.92496e-09
-3.11808e-08
2.92035e-09
-3.33297e-08
2.9054e-09
-3.54607e-08
2.88085e-09
-3.7567e-08
2.84736e-09
-3.96425e-08
2.80551e-09
-4.16812e-08
2.75582e-09
-4.36778e-08
2.69874e-09
-4.56269e-08
2.63469e-09
-4.75237e-08
2.56401e-09
-4.93634e-08
2.487e-09
-5.11415e-08
2.4039e-09
-5.28536e-08
2.31493e-09
-5.44955e-08
2.2203e-09
-5.60632e-08
2.12014e-09
-5.75525e-08
2.01459e-09
-5.89595e-08
1.90373e-09
-6.02806e-08
1.7877e-09
-6.15117e-08
1.66658e-09
-6.26494e-08
1.54047e-09
-6.369e-08
1.40947e-09
-6.46299e-08
1.27369e-09
-6.54657e-08
1.13325e-09
-6.61941e-08
9.88274e-10
-6.68119e-08
8.38929e-10
-6.7316e-08
6.85395e-10
-6.77035e-08
5.27898e-10
-6.79717e-08
3.66698e-10
-6.81181e-08
2.02074e-10
-6.81405e-08
3.43394e-11
-6.80369e-08
-1.36138e-10
-6.78056e-08
-3.0894e-10
-6.74452e-08
-4.83602e-10
-6.69549e-08
-6.59616e-10
-6.6334e-08
-8.36433e-10
-6.55825e-08
-1.01345e-09
-6.47008e-08
-1.19002e-09
-6.36896e-08
-1.36545e-09
-6.25505e-08
-1.53898e-09
-6.12855e-08
-1.70984e-09
-5.98971e-08
-1.87721e-09
-5.83887e-08
-2.04022e-09
-5.67641e-08
-2.19797e-09
-5.50279e-08
-2.34953e-09
-5.31854e-08
-2.49396e-09
-5.12425e-08
-2.63027e-09
-4.92061e-08
-2.75748e-09
-4.70836e-08
-2.87462e-09
-4.48831e-08
-2.98067e-09
-4.26135e-08
-3.07466e-09
-4.02844e-08
-3.15561e-09
-3.79062e-08
-3.22259e-09
-3.54897e-08
-3.27467e-09
-3.30466e-08
-3.31097e-09
-3.05892e-08
-3.33065e-09
-2.81301e-08
-3.33292e-09
-2.56828e-08
-3.31705e-09
-2.32611e-08
-3.28238e-09
-2.08791e-08
-3.22832e-09
-1.85514e-08
-3.15438e-09
-1.6293e-08
-3.06014e-09
-1.41187e-08
-2.94532e-09
-1.20439e-08
-2.80973e-09
-1.00836e-08
-2.65335e-09
-8.25283e-09
-2.4763e-09
-6.56634e-09
-2.27896e-09
-5.03824e-09
-2.06196e-09
-3.68184e-09
-1.82632e-09
-2.50916e-09
-1.57362e-09
-1.53037e-09
-1.30621e-09
-7.52899e-10
-1.02762e-09
-1.80152e-10
-7.43159e-10
1.90466e-10
-4.60901e-10
3.70415e-10
-1.9324e-10
3.84214e-10
4.08177e-11
2.7532e-10
2.11785e-10
1.12371e-10
2.75609e-10
1.70153e-10
7.57329e-11
-2.35843e-10
1.18328e-10
-2.68627e-10
1.53663e-11
-2.21766e-11
-3.04575e-10
3.95907e-10
-8.85232e-10
9.08383e-10
-1.74857e-09
1.46326e-09
-2.90093e-09
2.02692e-09
-4.33781e-09
2.57782e-09
-6.04743e-09
3.10225e-09
-8.01324e-09
3.5918e-09
-1.02157e-08
4.04163e-09
-1.26338e-08
4.44927e-09
-1.52454e-08
4.81392e-09
-1.80287e-08
5.13585e-09
-2.0962e-08
5.41612e-09
-2.40241e-08
5.65626e-09
-2.7195e-08
5.85809e-09
-3.04553e-08
6.02362e-09
-3.37868e-08
6.15497e-09
-3.71724e-08
6.25424e-09
-4.05959e-08
6.32352e-09
-4.40422e-08
6.36479e-09
-4.74972e-08
6.37999e-09
-5.09478e-08
6.37089e-09
-5.43815e-08
6.33916e-09
-5.7787e-08
6.28634e-09
-6.11535e-08
6.2138e-09
-6.44708e-08
6.12282e-09
-6.77295e-08
6.01452e-09
-7.09206e-08
5.88989e-09
-7.40358e-08
5.74982e-09
-7.70668e-08
5.59506e-09
-8.00061e-08
5.42628e-09
-8.28463e-08
5.24406e-09
-8.55802e-08
5.0489e-09
-8.82012e-08
4.84121e-09
-9.07024e-08
4.62136e-09
-9.30775e-08
4.38965e-09
-9.53201e-08
4.14635e-09
-9.74241e-08
3.89173e-09
-9.93836e-08
3.62602e-09
-1.01193e-07
3.34946e-09
-1.02845e-07
3.06228e-09
-1.04336e-07
2.76475e-09
-1.0566e-07
2.45717e-09
-1.06812e-07
2.13984e-09
-1.07786e-07
1.81313e-09
-1.08578e-07
1.47749e-09
-1.09184e-07
1.13341e-09
-1.09598e-07
7.81445e-10
-1.09819e-07
4.22244e-10
-1.09841e-07
5.65171e-11
-1.09662e-07
-3.14923e-10
-1.0928e-07
-6.91164e-10
-1.08692e-07
-1.0712e-09
-1.07898e-07
-1.45393e-09
-1.06896e-07
-1.83815e-09
-1.05687e-07
-2.22257e-09
-1.04271e-07
-2.60576e-09
-1.02651e-07
-2.98623e-09
-1.00827e-07
-3.36237e-09
-9.88045e-08
-3.7325e-09
-9.65868e-08
-4.09486e-09
-9.41795e-08
-4.44757e-09
-9.15887e-08
-4.78872e-09
-8.8822e-08
-5.11631e-09
-8.58876e-08
-5.4283e-09
-8.27953e-08
-5.72261e-09
-7.95556e-08
-5.99714e-09
-7.61805e-08
-6.24978e-09
-7.26827e-08
-6.47841e-09
-6.90765e-08
-6.68092e-09
-6.53768e-08
-6.85525e-09
-6.16e-08
-6.99938e-09
-5.77633e-08
-7.11137e-09
-5.3885e-08
-7.18934e-09
-4.99841e-08
-7.23153e-09
-4.60807e-08
-7.23628e-09
-4.21957e-08
-7.20208e-09
-3.83505e-08
-7.12756e-09
-3.45673e-08
-7.01154e-09
-3.08687e-08
-6.85302e-09
-2.72776e-08
-6.65123e-09
-2.38172e-08
-6.40567e-09
-2.05109e-08
-6.1161e-09
-1.73816e-08
-5.78266e-09
-1.4452e-08
-5.40589e-09
-1.17441e-08
-4.98686e-09
-9.27871e-09
-4.52731e-09
-7.07511e-09
-4.02991e-09
-5.15022e-09
-3.49851e-09
-3.51773e-09
-2.9387e-09
-2.18686e-09
-2.35848e-09
-1.16063e-09
-1.76939e-09
-4.33445e-10
-1.18809e-09
1.20352e-11
-6.38717e-10
2.09366e-10
-1.56512e-10
2.12698e-10
2.08449e-10
1.02793e-10
3.85509e-10
2.72946e-10
1.93634e-11
-2.55224e-10
-7.91747e-11
-1.70062e-10
-4.00052e-10
2.98696e-10
-1.01254e-09
1.00839e-09
-1.96002e-09
1.85587e-09
-3.26548e-09
2.76872e-09
-4.9359e-09
3.69734e-09
-6.9664e-09
4.60832e-09
-9.34358e-09
5.47944e-09
-1.20481e-08
6.29636e-09
-1.50568e-08
7.05027e-09
-1.83438e-08
7.73628e-09
-2.18822e-08
8.35226e-09
-2.56443e-08
8.898e-09
-2.96028e-08
9.37467e-09
-3.37309e-08
9.78432e-09
-3.80025e-08
1.01296e-08
-4.23925e-08
1.04137e-08
-4.68773e-08
1.06397e-08
-5.14342e-08
1.08111e-08
-5.60418e-08
1.09312e-08
-6.06802e-08
1.10032e-08
-6.53305e-08
1.10303e-08
-6.9975e-08
1.10154e-08
-7.45971e-08
1.09613e-08
-7.91814e-08
1.08706e-08
-8.37132e-08
1.07456e-08
-8.81788e-08
1.05885e-08
-9.25655e-08
1.04011e-08
-9.68608e-08
1.01853e-08
-1.01053e-07
9.94241e-09
-1.05132e-07
9.67391e-09
-1.09087e-07
9.38091e-09
-1.12907e-07
9.06444e-09
-1.16584e-07
8.72537e-09
-1.20107e-07
8.36446e-09
-1.23468e-07
7.98238e-09
-1.26658e-07
7.57969e-09
-1.29669e-07
7.15693e-09
-1.32491e-07
6.71457e-09
-1.35118e-07
6.25304e-09
-1.37542e-07
5.77281e-09
-1.39754e-07
5.27433e-09
-1.41747e-07
4.7581e-09
-1.43515e-07
4.22464e-09
-1.45049e-07
3.67457e-09
-1.46345e-07
3.10854e-09
-1.47395e-07
2.52732e-09
-1.48193e-07
1.93182e-09
-1.48735e-07
1.32302e-09
-1.49014e-07
7.02054e-10
-1.49028e-07
7.01704e-11
-1.48772e-07
-5.71209e-10
-1.48243e-07
-1.2205e-09
-1.47438e-07
-1.87597e-09
-1.46356e-07
-2.53571e-09
-1.44996e-07
-3.19766e-09
-1.43359e-07
-3.85958e-09
-1.41446e-07
-4.51904e-09
-1.39259e-07
-5.17348e-09
-1.36801e-07
-5.82015e-09
-1.34077e-07
-6.45618e-09
-1.31094e-07
-7.07853e-09
-1.27857e-07
-7.68403e-09
-1.24377e-07
-8.2694e-09
-1.20662e-07
-8.83127e-09
-1.16724e-07
-9.36616e-09
-1.12576e-07
-9.87053e-09
-1.08232e-07
-1.03408e-08
-1.03709e-07
-1.07734e-08
-9.90222e-08
-1.11648e-08
-9.41918e-08
-1.15113e-08
-8.92376e-08
-1.18095e-08
-8.41809e-08
-1.2056e-08
-7.90447e-08
-1.22476e-08
-7.38531e-08
-1.23809e-08
-6.86314e-08
-1.24532e-08
-6.34061e-08
-1.24616e-08
-5.82044e-08
-1.24037e-08
-5.30548e-08
-1.22772e-08
-4.79861e-08
-1.20802e-08
-4.3028e-08
-1.18111e-08
-3.82104e-08
-1.14688e-08
-3.35634e-08
-1.10527e-08
-2.9117e-08
-1.05625e-08
-2.4901e-08
-9.99872e-09
-2.09441e-08
-9.36272e-09
-1.72743e-08
-8.65667e-09
-1.39176e-08
-7.88402e-09
-1.08977e-08
-7.04979e-09
-8.23518e-09
-6.16107e-09
-5.94609e-09
-5.22778e-09
-4.04086e-09
-4.26372e-09
-2.5222e-09
-3.28806e-09
-1.38288e-09
-2.32741e-09
-6.02722e-10
-1.41887e-09
-1.45205e-10
-6.1403e-10
4.69386e-11
1.63044e-11
5.58879e-11
3.76558e-10
3.28834e-10
-5.23931e-11
-2.02842e-10
-3.27621e-10
1.05159e-10
-9.11106e-10
8.82185e-10
-1.86181e-09
1.9591e-09
-3.21751e-09
3.21157e-09
-4.99803e-09
4.54925e-09
-7.20847e-09
5.90777e-09
-9.84227e-09
7.24213e-09
-1.28841e-08
8.52132e-09
-1.63123e-08
9.72455e-09
-2.01005e-08
1.08385e-08
-2.42195e-08
1.18553e-08
-2.86382e-08
1.27709e-08
-3.33247e-08
1.35845e-08
-3.82471e-08
1.4297e-08
-4.33736e-08
1.49108e-08
-4.86734e-08
1.54295e-08
-5.41167e-08
1.5857e-08
-5.96749e-08
1.61979e-08
-6.53208e-08
1.6457e-08
-7.10284e-08
1.66388e-08
-7.67734e-08
1.67481e-08
-8.25326e-08
1.67895e-08
-8.82844e-08
1.67671e-08
-9.40082e-08
1.66852e-08
-9.9685e-08
1.65474e-08
-1.05297e-07
1.63572e-08
-1.10826e-07
1.61179e-08
-1.16257e-07
1.58323e-08
-1.21575e-07
1.55029e-08
-1.26765e-07
1.51322e-08
-1.31813e-07
1.47221e-08
-1.36706e-07
1.42744e-08
-1.41433e-07
1.37907e-08
-1.4598e-07
1.32724e-08
-1.50336e-07
1.27206e-08
-1.5449e-07
1.21364e-08
-1.58431e-07
1.15208e-08
-1.62148e-07
1.08745e-08
-1.65632e-07
1.01984e-08
-1.68872e-07
9.49317e-09
-1.71859e-07
8.75957e-09
-1.74583e-07
7.99834e-09
-1.77035e-07
7.21029e-09
-1.79207e-07
6.39628e-09
-1.8109e-07
5.55726e-09
-1.82675e-07
4.69431e-09
-1.83957e-07
3.80865e-09
-1.84927e-07
2.90164e-09
-1.85578e-07
1.97485e-09
-1.85906e-07
1.02998e-09
-1.85905e-07
6.90127e-11
-1.85571e-07
-9.05892e-10
-1.84899e-07
-1.89233e-09
-1.83887e-07
-2.88766e-09
-1.82534e-07
-3.88898e-09
-1.80838e-07
-4.89317e-09
-1.78801e-07
-5.89681e-09
-1.76424e-07
-6.89628e-09
-1.7371e-07
-7.88767e-09
-1.70663e-07
-8.86687e-09
-1.6729e-07
-9.82954e-09
-1.63597e-07
-1.07711e-08
-1.59594e-07
-1.16868e-08
-1.55292e-07
-1.25717e-08
-1.50702e-07
-1.34208e-08
-1.4584e-07
-1.42288e-08
-1.4072e-07
-1.49905e-08
-1.3536e-07
-1.57005e-08
-1.2978e-07
-1.63534e-08
-1.24001e-07
-1.69439e-08
-1.18046e-07
-1.74667e-08
-1.11939e-07
-1.79166e-08
-1.05706e-07
-1.82885e-08
-9.93762e-08
-1.85775e-08
-9.2978e-08
-1.87791e-08
-8.65425e-08
-1.88888e-08
-8.01016e-08
-1.89026e-08
-7.36884e-08
-1.88168e-08
-6.73373e-08
-1.86283e-08
-6.10831e-08
-1.83344e-08
-5.49615e-08
-1.79328e-08
-4.90083e-08
-1.7422e-08
-4.32596e-08
-1.68014e-08
-3.7751e-08
-1.6071e-08
-3.25179e-08
-1.52319e-08
-2.75941e-08
-1.42864e-08
-2.30124e-08
-1.32385e-08
-1.88028e-08
-1.20936e-08
-1.49927e-08
-1.08599e-08
-1.16054e-08
-9.54839e-09
-8.65898e-09
-8.17417e-09
-6.16508e-09
-6.75763e-09
-4.12685e-09
-5.32628e-09
-2.53708e-09
-3.91718e-09
-1.37567e-09
-2.58028e-09
-6.06928e-10
-1.38277e-09
-1.76755e-10
-4.13868e-10
-9.06784e-12
2.0887e-10
3.19767e-10
-1.30553e-10
-7.22927e-11
-6.00597e-10
5.75228e-10
-1.47186e-09
1.75343e-09
-2.78826e-09
3.27551e-09
-4.57796e-09
5.00127e-09
-6.85455e-09
6.82585e-09
-9.61896e-09
8.67219e-09
-1.28616e-08
1.04847e-08
-1.65645e-08
1.22242e-08
-2.07032e-08
1.38633e-08
-2.52488e-08
1.53841e-08
-3.01689e-08
1.67754e-08
-3.54292e-08
1.80312e-08
-4.09942e-08
1.91495e-08
-4.68281e-08
2.01309e-08
-5.28953e-08
2.09781e-08
-5.9161e-08
2.16951e-08
-6.55912e-08
2.22872e-08
-7.21532e-08
2.276e-08
-7.88158e-08
2.31196e-08
-8.55492e-08
2.33722e-08
-9.2325e-08
2.35239e-08
-9.91164e-08
2.35809e-08
-1.05898e-07
2.35488e-08
-1.12646e-07
2.34333e-08
-1.19338e-07
2.32393e-08
-1.25953e-07
2.29717e-08
-1.3247e-07
2.26349e-08
-1.3887e-07
2.22328e-08
-1.45136e-07
2.1769e-08
-1.5125e-07
2.12467e-08
-1.57197e-07
2.06687e-08
-1.6296e-07
2.00377e-08
-1.68526e-07
1.93558e-08
-1.73878e-07
1.8625e-08
-1.79005e-07
1.7847e-08
-1.83892e-07
1.70234e-08
-1.88526e-07
1.61554e-08
-1.92896e-07
1.52444e-08
-1.96989e-07
1.42915e-08
-2.00794e-07
1.32978e-08
-2.04299e-07
1.22644e-08
-2.07493e-07
1.11924e-08
-2.10366e-07
1.0083e-08
-2.12907e-07
8.93749e-09
-2.15107e-07
7.75724e-09
-2.16956e-07
6.54382e-09
-2.18447e-07
5.29899e-09
-2.1957e-07
4.02473e-09
-2.20318e-07
2.72323e-09
-2.20685e-07
1.39697e-09
-2.20665e-07
4.8701e-11
-2.20252e-07
-1.3185e-09
-2.19443e-07
-2.70124e-09
-2.18235e-07
-4.09583e-09
-2.16626e-07
-5.49821e-09
-2.14615e-07
-6.90398e-09
-2.12203e-07
-8.30841e-09
-2.09393e-07
-9.7064e-09
-2.06188e-07
-1.10926e-08
-2.02594e-07
-1.24611e-08
-1.98618e-07
-1.38061e-08
-1.94268e-07
-1.51211e-08
-1.89555e-07
-1.63996e-08
-1.84492e-07
-1.76346e-08
-1.79094e-07
-1.88193e-08
-1.73376e-07
-1.99463e-08
-1.67358e-07
-2.10084e-08
-1.6106e-07
-2.19983e-08
-1.54505e-07
-2.29084e-08
-1.47718e-07
-2.37314e-08
-1.40725e-07
-2.446e-08
-1.33554e-07
-2.50871e-08
-1.26237e-07
-2.56057e-08
-1.18805e-07
-2.60091e-08
-1.11293e-07
-2.6291e-08
-1.03737e-07
-2.64455e-08
-9.61722e-08
-2.6467e-08
-8.86383e-08
-2.63507e-08
-8.11744e-08
-2.60923e-08
-7.38206e-08
-2.56882e-08
-6.66176e-08
-2.51357e-08
-5.96066e-08
-2.44331e-08
-5.28285e-08
-2.35795e-08
-4.6324e-08
-2.25755e-08
-4.01328e-08
-2.1423e-08
-3.42934e-08
-2.01259e-08
-2.88422e-08
-1.86897e-08
-2.38128e-08
-1.7123e-08
-1.92356e-08
-1.54371e-08
-1.51364e-08
-1.36476e-08
-1.15352e-08
-1.17754e-08
-8.44522e-09
-9.84763e-09
-5.87104e-09
-7.90046e-09
-3.80707e-09
-5.98115e-09
-2.23566e-09
-4.1517e-09
-1.12525e-09
-2.49318e-09
-4.2865e-10
-1.11047e-09
-8.14294e-11
-1.38351e-10
2.38338e-10
-2.09734e-10
1.37438e-10
-8.81379e-10
1.24688e-09
-2.05163e-09
2.92369e-09
-3.74726e-09
4.97114e-09
-5.9843e-09
7.2383e-09
-8.76783e-09
9.60939e-09
-1.20928e-08
1.19971e-08
-1.59451e-08
1.43371e-08
-2.03033e-08
1.65824e-08
-2.514e-08
1.87e-08
-3.04233e-08
2.06673e-08
-3.61179e-08
2.247e-08
-4.21866e-08
2.40999e-08
-4.85908e-08
2.55537e-08
-5.52914e-08
2.68316e-08
-6.22496e-08
2.79363e-08
-6.94271e-08
2.88726e-08
-7.67864e-08
2.96465e-08
-8.42914e-08
3.0265e-08
-9.19074e-08
3.07355e-08
-9.96011e-08
3.10658e-08
-1.07341e-07
3.12635e-08
-1.15096e-07
3.13363e-08
-1.22839e-07
3.12916e-08
-1.30542e-07
3.11364e-08
-1.3818e-07
3.08772e-08
-1.45728e-07
3.05202e-08
-1.53165e-07
3.00711e-08
-1.60467e-07
2.95351e-08
-1.67615e-07
2.89168e-08
-1.74589e-07
2.82206e-08
-1.8137e-07
2.74501e-08
-1.87941e-07
2.66087e-08
-1.94285e-07
2.56995e-08
-2.00385e-07
2.47251e-08
-2.06225e-07
2.36877e-08
-2.11792e-07
2.25895e-08
-2.17069e-07
2.14324e-08
-2.22042e-07
2.0218e-08
-2.26699e-07
1.89481e-08
-2.31025e-07
1.7624e-08
-2.35008e-07
1.62474e-08
-2.38635e-07
1.48198e-08
-2.41895e-07
1.33428e-08
-2.44776e-07
1.18183e-08
-2.47267e-07
1.02481e-08
-2.49357e-07
8.63432e-09
-2.51037e-07
6.97946e-09
-2.52299e-07
5.28612e-09
-2.53133e-07
3.55728e-09
-2.53532e-07
1.79624e-09
-2.5349e-07
6.72518e-12
-2.53002e-07
-1.80719e-09
-2.52062e-07
-3.64101e-09
-2.50668e-07
-5.4898e-09
-2.48818e-07
-7.3482e-09
-2.46511e-07
-9.21039e-09
-2.4375e-07
-1.10701e-08
-2.40535e-07
-1.29206e-08
-2.36873e-07
-1.47549e-08
-2.32769e-07
-1.65652e-08
-2.28232e-07
-1.83437e-08
-2.23271e-07
-2.00821e-08
-2.17898e-07
-2.17717e-08
-2.1213e-07
-2.34034e-08
-2.05981e-07
-2.49682e-08
-1.9947e-07
-2.64566e-08
-1.9262e-07
-2.78589e-08
-1.85452e-07
-2.91657e-08
-1.77994e-07
-3.0367e-08
-1.70272e-07
-3.14534e-08
-1.62316e-07
-3.24153e-08
-1.5416e-07
-3.32434e-08
-1.45837e-07
-3.39287e-08
-1.37384e-07
-3.44625e-08
-1.28838e-07
-3.48365e-08
-1.2024e-07
-3.50432e-08
-1.11632e-07
-3.50756e-08
-1.03055e-07
-3.49273e-08
-9.45545e-08
-3.4593e-08
-8.61744e-08
-3.40683e-08
-7.79602e-08
-3.33499e-08
-6.99575e-08
-3.24358e-08
-6.22116e-08
-3.13253e-08
-5.47674e-08
-3.00197e-08
-4.76686e-08
-2.85218e-08
-4.09573e-08
-2.68372e-08
-3.46733e-08
-2.49738e-08
-2.88534e-08
-2.29429e-08
-2.35305e-08
-2.07599e-08
-1.87329e-08
-1.84452e-08
-1.4483e-08
-1.60254e-08
-1.07959e-08
-1.35347e-08
-7.67864e-09
-1.10177e-08
-5.12878e-09
-8.53101e-09
-3.13292e-09
-6.14756e-09
-1.66589e-09
-3.96021e-09
-6.90072e-10
-2.08628e-09
-1.55327e-10
-6.73095e-10
8.30132e-11
-2.87182e-10
4.2461e-10
-1.15987e-09
2.11957e-09
-2.63091e-09
4.39474e-09
-4.70918e-09
7.0494e-09
-7.39728e-09
9.92641e-09
-1.06904e-08
1.29025e-08
-1.4576e-08
1.58827e-08
-1.90344e-08
1.87955e-08
-2.40399e-08
2.15879e-08
-2.95613e-08
2.42214e-08
-3.55637e-08
2.66697e-08
-4.20088e-08
2.89151e-08
-4.88566e-08
3.09477e-08
-5.60657e-08
3.27628e-08
-6.35941e-08
3.436e-08
-7.14e-08
3.57422e-08
-7.94422e-08
3.69148e-08
-8.76803e-08
3.78846e-08
-9.60751e-08
3.86598e-08
-1.04589e-07
3.92492e-08
-1.13185e-07
3.96621e-08
-1.21829e-07
3.99078e-08
-1.30489e-07
3.99956e-08
-1.39131e-07
3.99344e-08
-1.47728e-07
3.97329e-08
-1.5625e-07
3.93993e-08
-1.64671e-07
3.89411e-08
-1.72965e-07
3.83655e-08
-1.81109e-07
3.76788e-08
-1.89079e-07
3.68871e-08
-1.96854e-07
3.59956e-08
-2.04413e-07
3.50091e-08
-2.11737e-07
3.3932e-08
-2.18805e-07
3.2768e-08
-2.25601e-07
3.15206e-08
-2.32106e-07
3.01926e-08
-2.38303e-07
2.8787e-08
-2.44177e-07
2.73062e-08
-2.49711e-07
2.57523e-08
-2.54891e-07
2.41275e-08
-2.597e-07
2.24339e-08
-2.64127e-07
2.06735e-08
-2.68155e-07
1.88484e-08
-2.71773e-07
1.69608e-08
-2.74968e-07
1.50129e-08
-2.77727e-07
1.30073e-08
-2.8004e-07
1.09468e-08
-2.81895e-07
8.83452e-09
-2.83282e-07
6.67386e-09
-2.84194e-07
4.46869e-09
-2.84621e-07
2.22327e-09
-2.84556e-07
-5.7654e-11
-2.83995e-07
-2.36886e-09
-2.82931e-07
-4.70461e-09
-2.81362e-07
-7.05861e-09
-2.79287e-07
-9.42404e-09
-2.76703e-07
-1.17935e-08
-2.73614e-07
-1.41591e-08
-2.70023e-07
-1.65122e-08
-2.65934e-07
-1.88439e-08
-2.61354e-07
-2.11446e-08
-2.56294e-07
-2.34042e-08
-2.50764e-07
-2.56123e-08
-2.44778e-07
-2.77578e-08
-2.38351e-07
-2.98295e-08
-2.31504e-07
-3.18158e-08
-2.24256e-07
-3.37048e-08
-2.1663e-07
-3.54844e-08
-2.08653e-07
-3.71425e-08
-2.00354e-07
-3.86669e-08
-1.91761e-07
-4.00456e-08
-1.8291e-07
-4.12666e-08
-1.73835e-07
-4.23182e-08
-1.64575e-07
-4.31892e-08
-1.55168e-07
-4.38688e-08
-1.45658e-07
-4.43467e-08
-1.36088e-07
-4.46135e-08
-1.26503e-07
-4.46606e-08
-1.1695e-07
-4.44802e-08
-1.07477e-07
-4.40659e-08
-9.81331e-08
-4.34124e-08
-8.89672e-08
-4.25158e-08
-8.0029e-08
-4.1374e-08
-7.13676e-08
-3.99867e-08
-6.30316e-08
-3.83557e-08
-5.50681e-08
-3.64853e-08
-4.75226e-08
-3.43827e-08
-4.04379e-08
-3.20584e-08
-3.38537e-08
-2.95271e-08
-2.78057e-08
-2.6808e-08
-2.23245e-08
-2.39264e-08
-1.7435e-08
-2.09149e-08
-1.31552e-08
-1.78145e-08
-9.49561e-09
-1.46773e-08
-6.45768e-09
-1.15689e-08
-4.0338e-09
-8.57144e-09
-2.20665e-09
-5.78735e-09
-9.49543e-10
-3.34339e-09
-2.27483e-10
-1.39515e-09
-1.44468e-10
-3.61449e-10
7.86062e-10
-1.43041e-09
3.18852e-09
-3.1978e-09
6.16213e-09
-5.655e-09
9.50661e-09
-8.7908e-09
1.30622e-08
-1.25896e-08
1.67013e-08
-1.70305e-08
2.03237e-08
-2.20876e-08
2.38525e-08
-2.77297e-08
2.723e-08
-3.39217e-08
3.04134e-08
-4.06249e-08
3.3373e-08
-4.77983e-08
3.60885e-08
-5.53988e-08
3.85481e-08
-6.33821e-08
4.07461e-08
-7.17039e-08
4.26817e-08
-8.03196e-08
4.43579e-08
-8.91852e-08
4.57804e-08
-9.82578e-08
4.69572e-08
-1.07496e-07
4.78975e-08
-1.16858e-07
4.86116e-08
-1.26306e-07
4.91103e-08
-1.35803e-07
4.94045e-08
-1.45312e-07
4.95052e-08
-1.54801e-07
4.94231e-08
-1.64237e-07
4.91684e-08
-1.73588e-07
4.87509e-08
-1.82827e-07
4.81798e-08
-1.91925e-07
4.74637e-08
-2.00857e-07
4.66103e-08
-2.09596e-07
4.56268e-08
-2.18121e-07
4.45198e-08
-2.26407e-07
4.32952e-08
-2.34433e-07
4.19582e-08
-2.42178e-07
4.05135e-08
-2.49623e-07
3.89654e-08
-2.56748e-07
3.73177e-08
-2.63535e-07
3.55738e-08
-2.69966e-07
3.37367e-08
-2.76023e-07
3.18094e-08
-2.8169e-07
2.97946e-08
-2.86951e-07
2.76948e-08
-2.9179e-07
2.55127e-08
-2.96192e-07
2.3251e-08
-3.00144e-07
2.09123e-08
-3.03631e-07
1.84997e-08
-3.0664e-07
1.60163e-08
-3.09159e-07
1.34657e-08
-3.11176e-07
1.08518e-08
-3.12681e-07
8.17885e-09
-3.13664e-07
5.45168e-09
-3.14116e-07
2.67561e-09
-3.1403e-07
-1.43486e-10
-3.134e-07
-2.99913e-09
-3.12221e-07
-5.88421e-09
-3.10488e-07
-8.79097e-09
-3.08201e-07
-1.1711e-08
-3.0536e-07
-1.46352e-08
-3.01965e-07
-1.75537e-08
-2.98021e-07
-2.04562e-08
-2.93534e-07
-2.33315e-08
-2.8851e-07
-2.61678e-08
-2.82962e-07
-2.8953e-08
-2.769e-07
-3.1674e-08
-2.7034e-07
-3.43175e-08
-2.633e-07
-3.68696e-08
-2.558e-07
-3.93161e-08
-2.47862e-07
-4.16426e-08
-2.39512e-07
-4.38342e-08
-2.30779e-07
-4.58762e-08
-2.21692e-07
-4.77538e-08
-2.12285e-07
-4.94521e-08
-2.02595e-07
-5.09567e-08
-1.9266e-07
-5.22535e-08
-1.8252e-07
-5.33287e-08
-1.7222e-07
-5.41692e-08
-1.61804e-07
-5.47628e-08
-1.51319e-07
-5.5098e-08
-1.40815e-07
-5.51645e-08
-1.30342e-07
-5.49531e-08
-1.19952e-07
-5.44562e-08
-1.09697e-07
-5.36677e-08
-9.96295e-08
-5.25831e-08
-8.98031e-08
-5.12004e-08
-8.02704e-08
-4.95194e-08
-7.10831e-08
-4.75429e-08
-6.22917e-08
-4.52767e-08
-5.39447e-08
-4.27298e-08
-4.60877e-08
-3.99154e-08
-3.87633e-08
-3.68515e-08
-3.20097e-08
-3.35615e-08
-2.58606e-08
-3.00756e-08
-2.03436e-08
-2.64318e-08
-1.54803e-08
-2.26778e-08
-1.12848e-08
-1.88728e-08
-7.76388e-09
-1.50898e-08
-4.9164e-09
-1.14189e-08
-2.73366e-09
-7.97009e-09
-1.20032e-09
-4.87673e-09
-2.962e-10
-2.29927e-09
-4.40667e-10
-4.31948e-10
1.21801e-09
-1.68999e-09
4.44655e-09
-3.74541e-09
8.21755e-09
-6.57308e-09
1.23343e-08
-1.01482e-08
1.66373e-08
-1.4444e-08
2.09971e-08
-1.94308e-08
2.53105e-08
-2.50755e-08
2.94973e-08
-3.13414e-08
3.34959e-08
-3.81887e-08
3.72607e-08
-4.55747e-08
4.0759e-08
-5.34551e-08
4.39689e-08
-6.17838e-08
4.68768e-08
-7.05139e-08
4.94762e-08
-7.95982e-08
5.17661e-08
-8.89899e-08
5.37496e-08
-9.86425e-08
5.54331e-08
-1.08511e-07
5.68254e-08
-1.1855e-07
5.7937e-08
-1.28718e-07
5.87796e-08
-1.38974e-07
5.93656e-08
-1.49277e-07
5.97076e-08
-1.5959e-07
5.98182e-08
-1.69876e-07
5.97098e-08
-1.80102e-07
5.93945e-08
-1.90235e-07
5.88836e-08
-2.00243e-07
5.8188e-08
-2.10097e-07
5.73176e-08
-2.19769e-07
5.62818e-08
-2.29231e-07
5.50892e-08
-2.38459e-07
5.37474e-08
-2.47427e-07
5.22634e-08
-2.56113e-07
5.06437e-08
-2.64493e-07
4.8894e-08
-2.72547e-07
4.70193e-08
-2.80253e-07
4.50242e-08
-2.87592e-07
4.29129e-08
-2.94545e-07
4.06893e-08
-3.01092e-07
3.83568e-08
-3.07217e-07
3.59188e-08
-3.129e-07
3.33786e-08
-3.18127e-07
3.07393e-08
-3.2288e-07
2.80043e-08
-3.27145e-07
2.51769e-08
-3.30906e-07
2.22609e-08
-3.3415e-07
1.92601e-08
-3.36863e-07
1.61789e-08
-3.39033e-07
1.3022e-08
-3.40649e-07
9.79469e-09
-3.417e-07
6.50282e-09
-3.42177e-07
3.15282e-09
-3.42072e-07
-2.48184e-10
-3.41379e-07
-3.69237e-09
-3.40092e-07
-7.17116e-09
-3.38208e-07
-1.06752e-08
-3.35725e-07
-1.41944e-08
-3.32642e-07
-1.77177e-08
-3.28962e-07
-2.12335e-08
-3.24689e-07
-2.47291e-08
-3.19829e-07
-2.81913e-08
-3.14391e-07
-3.16061e-08
-3.08386e-07
-3.49585e-08
-3.01826e-07
-3.82333e-08
-2.94729e-07
-4.14143e-08
-2.87114e-07
-4.44851e-08
-2.79002e-07
-4.74285e-08
-2.70417e-07
-5.02274e-08
-2.61387e-07
-5.28642e-08
-2.51942e-07
-5.53211e-08
-2.42115e-07
-5.75805e-08
-2.31942e-07
-5.96248e-08
-2.21462e-07
-6.14369e-08
-2.10716e-07
-6.29997e-08
-1.99747e-07
-6.42972e-08
-1.88603e-07
-6.53139e-08
-1.7733e-07
-6.60351e-08
-1.65981e-07
-6.64475e-08
-1.54606e-07
-6.6539e-08
-1.43261e-07
-6.62989e-08
-1.31999e-07
-6.57183e-08
-1.20876e-07
-6.47903e-08
-1.09949e-07
-6.351e-08
-9.92742e-08
-6.18752e-08
-8.89072e-08
-5.98864e-08
-7.8903e-08
-5.75472e-08
-6.9315e-08
-5.48647e-08
-6.01946e-08
-5.18502e-08
-5.15905e-08
-4.85196e-08
-4.35478e-08
-4.48941e-08
-3.61079e-08
-4.10014e-08
-2.93073e-08
-3.68763e-08
-2.3177e-08
-3.25621e-08
-1.77423e-08
-2.81125e-08
-1.3022e-08
-2.35931e-08
-9.0283e-09
-1.90835e-08
-5.76718e-09
-1.468e-08
-3.23873e-09
-1.04985e-08
-1.4387e-09
-6.67676e-09
-3.60671e-10
-3.3773e-09
-8.01338e-10
-4.98467e-10
1.71648e-09
-1.93716e-09
5.88525e-09
-4.27006e-09
1.05504e-08
-7.45676e-09
1.5521e-08
-1.14593e-08
2.06398e-08
-1.62401e-08
2.57778e-08
-2.17603e-08
3.08307e-08
-2.79793e-08
3.57163e-08
-3.48543e-08
4.03709e-08
-4.23405e-08
4.47469e-08
-5.03911e-08
4.88097e-08
-5.8958e-08
5.25358e-08
-6.7992e-08
5.59108e-08
-7.74435e-08
5.89277e-08
-8.72626e-08
6.15853e-08
-9.74002e-08
6.38871e-08
-1.07807e-07
6.58403e-08
-1.18437e-07
6.74546e-08
-1.29242e-07
6.87419e-08
-1.40177e-07
6.97153e-08
-1.512e-07
7.03887e-08
-1.62269e-07
7.07765e-08
-1.73344e-07
7.0893e-08
-1.84387e-07
7.07525e-08
-1.95361e-07
7.03687e-08
-2.06232e-07
6.97547e-08
-2.16967e-07
6.89229e-08
-2.27534e-07
6.7885e-08
-2.37904e-07
6.66517e-08
-2.48048e-07
6.5233e-08
-2.57938e-07
6.36379e-08
-2.6755e-07
6.18746e-08
-2.76857e-07
5.99506e-08
-2.85835e-07
5.78727e-08
-2.94463e-07
5.56468e-08
-3.02717e-07
5.32784e-08
-3.10577e-07
5.07726e-08
-3.18021e-07
4.81338e-08
-3.25031e-07
4.53664e-08
-3.31586e-07
4.24743e-08
-3.37669e-07
3.94615e-08
-3.43262e-07
3.63318e-08
-3.48347e-07
3.30892e-08
-3.52908e-07
2.97379e-08
-3.56929e-07
2.62822e-08
-3.60396e-07
2.27269e-08
-3.63294e-07
1.90771e-08
-3.65611e-07
1.53386e-08
-3.67334e-07
1.15175e-08
-3.68452e-07
7.62093e-09
-3.68955e-07
3.65642e-09
-3.68836e-07
-3.67562e-10
-3.68087e-07
-4.44174e-09
-3.66702e-07
-8.55598e-09
-3.64678e-07
-1.26992e-08
-3.62013e-07
-1.68595e-08
-3.58706e-07
-2.1024e-08
-3.54761e-07
-2.51788e-08
-3.50181e-07
-2.93091e-08
-3.44973e-07
-3.33993e-08
-3.39146e-07
-3.74328e-08
-3.32713e-07
-4.13923e-08
-3.25686e-07
-4.52596e-08
-3.18085e-07
-4.90159e-08
-3.09928e-07
-5.26418e-08
-3.01239e-07
-5.61174e-08
-2.92044e-07
-5.94223e-08
-2.82373e-07
-6.2536e-08
-2.72256e-07
-6.54377e-08
-2.6173e-07
-6.81068e-08
-2.50832e-07
-7.05228e-08
-2.39603e-07
-7.26654e-08
-2.28088e-07
-7.45151e-08
-2.16332e-07
-7.6053e-08
-2.04385e-07
-7.7261e-08
-1.92298e-07
-7.81222e-08
-1.80124e-07
-7.86213e-08
-1.67919e-07
-7.87441e-08
-1.5574e-07
-7.84785e-08
-1.43643e-07
-7.78144e-08
-1.3169e-07
-7.67439e-08
-1.19938e-07
-7.52618e-08
-1.08448e-07
-7.33658e-08
-9.7277e-08
-7.10569e-08
-8.64846e-08
-6.83396e-08
-7.61265e-08
-6.52227e-08
-6.62571e-08
-6.17196e-08
-5.69279e-08
-5.78488e-08
-4.81871e-08
-5.36349e-08
-4.00791e-08
-4.91094e-08
-3.26436e-08
-4.43117e-08
-2.59154e-08
-3.92903e-08
-1.99238e-08
-3.41041e-08
-1.46926e-08
-2.88244e-08
-1.02398e-08
-2.35363e-08
-6.57855e-09
-1.83413e-08
-3.71754e-09
-1.33595e-08
-1.66294e-09
-8.73136e-09
-4.206e-10
-4.61964e-09
-1.22194e-09
-5.61054e-10
2.27753e-09
-2.17158e-09
7.49578e-09
-4.77028e-09
1.31491e-08
-8.30281e-09
1.90535e-08
-1.27189e-08
2.5056e-08
-1.79704e-08
3.10293e-08
-2.40093e-08
3.68696e-08
-3.07875e-08
4.24944e-08
-3.82557e-08
4.78392e-08
-4.63638e-08
5.2855e-08
-5.50606e-08
5.75065e-08
-6.42941e-08
6.17693e-08
-7.40118e-08
6.56285e-08
-8.41612e-08
6.9077e-08
-9.46899e-08
7.2114e-08
-1.05546e-07
7.47433e-08
-1.16679e-07
7.69731e-08
-1.28039e-07
7.88143e-08
-1.39577e-07
8.02801e-08
-1.51247e-07
8.13851e-08
-1.63003e-07
8.21449e-08
-1.74802e-07
8.25756e-08
-1.86602e-07
8.26934e-08
-1.98364e-07
8.25143e-08
-2.10049e-07
8.20538e-08
-2.21621e-07
8.13267e-08
-2.33045e-07
8.03473e-08
-2.44289e-07
7.91287e-08
-2.55321e-07
7.76832e-08
-2.6611e-07
7.60223e-08
-2.76628e-07
7.41562e-08
-2.86848e-07
7.20946e-08
-2.96744e-07
6.98458e-08
-3.06289e-07
6.74179e-08
-3.1546e-07
6.48177e-08
-3.24233e-07
6.20517e-08
-3.32586e-07
5.91257e-08
-3.40497e-07
5.6045e-08
-3.47946e-07
5.28147e-08
-3.54911e-07
4.94395e-08
-3.61373e-07
4.5924e-08
-3.67314e-07
4.22728e-08
-3.72716e-07
3.84906e-08
-3.7756e-07
3.45823e-08
-3.81831e-07
3.0553e-08
-3.85513e-07
2.64084e-08
-3.8859e-07
2.21545e-08
-3.91049e-07
1.77979e-08
-3.92878e-07
1.33461e-08
-3.94064e-07
8.80708e-09
-3.94597e-07
4.18982e-09
-3.94469e-07
-4.95859e-10
-3.93672e-07
-5.23916e-09
-3.92199e-07
-1.00283e-08
-3.90048e-07
-1.48504e-08
-3.87216e-07
-1.96917e-08
-3.83703e-07
-2.45371e-08
-3.79511e-07
-2.93706e-08
-3.74645e-07
-3.41751e-08