/*--------------------------------*- C++ -*----------------------------------*\
| =========                 |                                                 |
| \\      /  F ield         | OpenFOAM: The Open Source CFD Toolbox           |
|  \\    /   O peration     | Version:  2512                                  |
|   \\  /    A nd           | Website:  www.openfoam.com                      |
|    \\/     M anipulation  |                                                 |
\*---------------------------------------------------------------------------*/
FoamFile
{
    version     2.0;
    format      ascii;
    arch        "LSB;label=32;scalar=64";
    class       surfaceScalarField;
    location    "0.06";
    object      phi;
}
// * * * * * * * * * * * * * * * * * * * * * * * * * * * * * * * * * * * * * //

dimensions      [0 3 -1 0 0 0 0];

oriented        oriented;

internalField   nonuniform List<scalar> 
19800
(
6.72937e-11
-6.73124e-11
1.56123e-10
-8.88233e-11
1.71689e-10
-1.55623e-11
1.00354e-10
7.13459e-11
-6.43106e-11
1.64666e-10
-3.17664e-10
2.53353e-10
-6.51318e-10
3.33655e-10
-1.05564e-09
4.04328e-10
-1.52083e-09
4.6518e-10
-2.03731e-09
5.16486e-10
-2.59615e-09
5.5884e-10
-3.18925e-09
5.93105e-10
-3.8094e-09
6.20146e-10
-4.45017e-09
6.40769e-10
-5.10583e-09
6.55659e-10
-5.7713e-09
6.65471e-10
-6.44222e-09
6.70908e-10
-7.11486e-09
6.72641e-10
-7.78605e-09
6.71192e-10
-8.45303e-09
6.6697e-10
-9.11337e-09
6.60344e-10
-9.76504e-09
6.51671e-10
-1.04063e-08
6.41266e-10
-1.10357e-08
6.2938e-10
-1.16519e-08
6.162e-10
-1.22537e-08
6.01867e-10
-1.28402e-08
5.86508e-10
-1.34105e-08
5.70232e-10
-1.39636e-08
5.53121e-10
-1.44988e-08
5.35244e-10
-1.50155e-08
5.16663e-10
-1.55129e-08
4.97411e-10
-1.59904e-08
4.77501e-10
-1.64474e-08
4.56956e-10
-1.68832e-08
4.35809e-10
-1.72973e-08
4.14083e-10
-1.76891e-08
3.91789e-10
-1.8058e-08
3.68944e-10
-1.84036e-08
3.45566e-10
-1.87252e-08
3.21665e-10
-1.90225e-08
2.97251e-10
-1.92948e-08
2.72347e-10
-1.95418e-08
2.46976e-10
-1.9763e-08
2.21154e-10
-1.99579e-08
1.94897e-10
-2.01261e-08
1.6822e-10
-2.02672e-08
1.41144e-10
-2.03809e-08
1.13698e-10
-2.04668e-08
8.5908e-11
-2.05246e-08
5.78001e-11
-2.0554e-08
2.93999e-11
-2.05548e-08
7.41845e-13
-2.05266e-08
-2.81622e-11
-2.04694e-08
-5.72601e-11
-2.03828e-08
-8.65232e-11
-2.02669e-08
-1.15912e-10
-2.01215e-08
-1.45385e-10
-1.99466e-08
-1.74903e-10
-1.97422e-08
-2.04427e-10
-1.95083e-08
-2.33911e-10
-1.9245e-08
-2.6331e-10
-1.89524e-08
-2.92573e-10
-1.86307e-08
-3.21643e-10
-1.82803e-08
-3.50468e-10
-1.79013e-08
-3.78996e-10
-1.74941e-08
-4.07173e-10
-1.70592e-08
-4.34941e-10
-1.65969e-08
-4.62234e-10
-1.6108e-08
-4.88975e-10
-1.55929e-08
-5.15082e-10
-1.50524e-08
-5.40466e-10
-1.44874e-08
-5.6503e-10
-1.38987e-08
-5.88663e-10
-1.32875e-08
-6.11243e-10
-1.26548e-08
-6.32622e-10
-1.20022e-08
-6.52628e-10
-1.13312e-08
-6.71063e-10
-1.06435e-08
-6.87701e-10
-9.9412e-09
-7.02278e-10
-9.22671e-09
-7.14491e-10
-8.50271e-09
-7.23999e-10
-7.7723e-09
-7.30414e-10
-7.039e-09
-7.33299e-10
-6.30684e-09
-7.32161e-10
-5.58038e-09
-7.26456e-10
-4.8648e-09
-7.15588e-10
-4.1659e-09
-6.98907e-10
-3.49018e-09
-6.75721e-10
-2.84487e-09
-6.45307e-10
-2.23794e-09
-6.06924e-10
-1.6781e-09
-5.59841e-10
-1.17472e-09
-5.03382e-10
-7.37695e-10
-4.37017e-10
-3.77177e-10
-3.60518e-10
-1.02906e-10
-2.74273e-10
7.7055e-11
-1.79958e-10
1.58904e-10
-8.18487e-11
1.48157e-10
1.07398e-11
7.12856e-11
7.68658e-11
7.12797e-11
5.91316e-11
-1.26437e-10
7.98691e-11
-1.09575e-10
-4.41359e-11
1.08442e-10
-3.70426e-10
3.97634e-10
-9.13528e-10
7.07764e-10
-1.67083e-09
1.01065e-09
-2.62865e-09
1.29147e-09
-3.76761e-09
1.54328e-09
-5.06586e-09
1.76344e-09
-6.50113e-09
1.95175e-09
-8.05169e-09
2.1094e-09
-9.69701e-09
2.23843e-09
-1.14182e-08
2.34132e-09
-1.3198e-08
2.42062e-09
-1.50212e-08
2.4788e-09
-1.68739e-08
2.51826e-09
-1.87443e-08
2.5413e-09
-2.06218e-08
2.55009e-09
-2.24971e-08
2.54653e-09
-2.43624e-08
2.53228e-09
-2.62109e-08
2.50877e-09
-2.80365e-08
2.47729e-09
-2.98341e-08
2.43893e-09
-3.15993e-08
2.3946e-09
-3.33282e-08
2.34509e-09
-3.50174e-08
2.29101e-09
-3.66637e-08
2.23286e-09
-3.82646e-08
2.17105e-09
-3.98174e-08
2.10592e-09
-4.13198e-08
2.03775e-09
-4.27699e-08
1.96674e-09
-4.41656e-08
1.89307e-09
-4.55049e-08
1.81685e-09
-4.67862e-08
1.7382e-09
-4.80076e-08
1.65722e-09
-4.91675e-08
1.57399e-09
-5.02643e-08
1.48859e-09
-5.12965e-08
1.4011e-09
-5.22625e-08
1.31156e-09
-5.31609e-08
1.22005e-09
-5.39902e-08
1.12663e-09
-5.47493e-08
1.03137e-09
-5.54366e-08
9.3434e-10
-5.60511e-08
8.35616e-10
-5.65914e-08
7.35267e-10
-5.70566e-08
6.33372e-10
-5.74455e-08
5.30019e-10
-5.77571e-08
4.25301e-10
-5.79905e-08
3.19318e-10
-5.81449e-08
2.12171e-10
-5.82194e-08
1.03964e-10
-5.82135e-08
-5.18993e-12
-5.81265e-08
-1.15178e-10
-5.79579e-08
-2.25868e-10
-5.77073e-08
-3.37125e-10
-5.73744e-08
-4.48806e-10
-5.6959e-08
-5.60761e-10
-5.64611e-08
-6.72833e-10
-5.58806e-08
-7.84866e-10
-5.52178e-08
-8.96692e-10
-5.4473e-08
-1.00813e-09
-5.36466e-08
-1.119e-09
-5.27391e-08
-1.2291e-09
-5.17514e-08
-1.33822e-09
-5.06842e-08
-1.44617e-09
-4.95387e-08
-1.55273e-09
-4.8316e-08
-1.65765e-09
-4.70175e-08
-1.7607e-09
-4.56449e-08
-1.86157e-09
-4.42e-08
-1.95997e-09
-4.26849e-08
-2.05555e-09
-4.1102e-08
-2.14793e-09
-3.9454e-08
-2.23667e-09
-3.7744e-08
-2.32127e-09
-3.59754e-08
-2.40118e-09
-3.41523e-08
-2.47573e-09
-3.22792e-08
-2.54418e-09
-3.03613e-08
-2.60566e-09
-2.84044e-08
-2.65918e-09
-2.64152e-08
-2.70361e-09
-2.44016e-08
-2.73767e-09
-2.2372e-08
-2.75993e-09
-2.03366e-08
-2.76877e-09
-1.83063e-08
-2.7624e-09
-1.62939e-08
-2.73888e-09
-1.43134e-08
-2.6961e-09
-1.23805e-08
-2.63181e-09
-1.05126e-08
-2.54368e-09
-8.72854e-09
-2.42932e-09
-7.04906e-09
-2.28641e-09
-5.49605e-09
-2.11285e-09
-4.09248e-09
-1.90695e-09
-2.86167e-09
-1.66784e-09
-1.82609e-09
-1.3961e-09
-1.00547e-09
-1.09489e-09
-4.13572e-10
-7.71861e-10
-5.27711e-11
-4.42653e-10
9.43236e-11
-1.36341e-10
7.67851e-11
9.44205e-11
1.48062e-10
1.12361e-11
-1.3767e-10
-1.27495e-10
2.91542e-11
-4.98715e-10
4.79667e-10
-1.15764e-09
1.05656e-09
-2.12421e-09
1.67434e-09
-3.39663e-09
2.28307e-09
-4.95892e-09
2.85376e-09
-6.78656e-09
3.37093e-09
-8.8506e-09
3.82747e-09
-1.11203e-08
4.22143e-09
-1.35649e-08
4.55405e-09
-1.6155e-08
4.82847e-09
-1.88626e-08
5.04892e-09
-2.16621e-08
5.22013e-09
-2.45302e-08
5.34695e-09
-2.74462e-08
5.43416e-09
-3.03912e-08
5.48638e-09
-3.33491e-08
5.50792e-09
-3.63052e-08
5.5027e-09
-3.92471e-08
5.47417e-09
-4.21638e-08
5.42543e-09
-4.50457e-08
5.35917e-09
-4.78844e-08
5.2777e-09
-5.06728e-08
5.18302e-09
-5.34045e-08
5.07675e-09
-5.60738e-08
4.96029e-09
-5.86757e-08
4.83476e-09
-6.12057e-08
4.70107e-09
-6.36598e-08
4.55999e-09
-6.60342e-08
4.41213e-09
-6.83254e-08
4.25797e-09
-7.05303e-08
4.09791e-09
-7.26456e-08
3.93225e-09
-7.46687e-08
3.76126e-09
-7.65967e-08
3.58517e-09
-7.84269e-08
3.40418e-09
-8.01567e-08
3.21847e-09
-8.17838e-08
3.0282e-09
-8.33058e-08
2.83352e-09
-8.47203e-08
2.63458e-09
-8.60252e-08
2.43153e-09
-8.72184e-08
2.22452e-09
-8.82978e-08
2.01373e-09
-8.92615e-08
1.79931e-09
-9.01076e-08
1.58143e-09
-9.08345e-08
1.36028e-09
-9.14405e-08
1.13603e-09
-9.19242e-08
9.08909e-10
-9.2284e-08
6.7912e-10
-9.25187e-08
4.46892e-10
-9.26272e-08
2.12458e-10
-9.26084e-08
-2.39365e-11
-9.24616e-08
-2.62031e-10
-9.21859e-08
-5.0155e-10
-9.17808e-08
-7.422e-10
-9.12459e-08
-9.83673e-10
-9.0581e-08
-1.22565e-09
-8.97861e-08
-1.46779e-09
-8.88612e-08
-1.70976e-09
-8.78067e-08
-1.95119e-09
-8.66231e-08
-2.1917e-09
-8.53112e-08
-2.4309e-09
-8.38719e-08
-2.66837e-09
-8.23065e-08
-2.90366e-09
-8.06163e-08
-3.13634e-09
-7.88031e-08
-3.36592e-09
-7.68689e-08
-3.59188e-09
-7.48159e-08
-3.81366e-09
-7.26469e-08
-4.03065e-09
-7.03646e-08
-4.24218e-09
-6.79727e-08
-4.44748e-09
-6.54749e-08
-4.64572e-09
-6.28757e-08
-4.83593e-09
-6.01799e-08
-5.01705e-09
-5.73933e-08
-5.18783e-09
-5.45222e-08
-5.34684e-09
-5.15739e-08
-5.49247e-09
-4.85567e-08
-5.62286e-09
-4.548e-08
-5.73588e-09
-4.23545e-08
-5.82914e-09
-3.91922e-08
-5.89993e-09
-3.6007e-08
-5.94519e-09
-3.28141e-08
-5.96158e-09
-2.96312e-08
-5.94538e-09
-2.64775e-08
-5.89259e-09
-2.33747e-08
-5.79892e-09
-2.03466e-08
-5.65988e-09
-1.74194e-08
-5.47087e-09
-1.46214e-08
-5.22734e-09
-1.19828e-08
-4.92503e-09
-9.53532e-09
-4.56028e-09
-7.31163e-09
-4.13063e-09
-5.34392e-09
-3.63555e-09
-3.66228e-09
-3.07774e-09
-2.29201e-09
-2.46516e-09
-1.2496e-09
-1.81428e-09
-5.3698e-10
-1.15528e-09
-1.33931e-10
-5.3939e-10
1.15677e-11
-5.10724e-11
1.59631e-10
-7.37887e-11
-6.38688e-11
-4.08426e-10
3.63789e-10
-1.07093e-09
1.14217e-09
-2.10176e-09
2.08739e-09
-3.51547e-09
3.08805e-09
-5.30687e-09
4.07447e-09
-7.45675e-09
5.00364e-09
-9.93664e-09
5.85082e-09
-1.27127e-08
6.6035e-09
-1.57483e-08
7.25712e-09
-1.90066e-08
7.81233e-09
-2.24512e-08
8.27308e-09
-2.60477e-08
8.64536e-09
-2.97638e-08
8.93621e-09
-3.35699e-08
9.15314e-09
-3.74395e-08
9.3037e-09
-4.13483e-08
9.39524e-09
-4.52751e-08
9.43467e-09
-4.92008e-08
9.42839e-09
-5.31088e-08
9.38216e-09
-5.69844e-08
9.30109e-09
-6.0815e-08
9.18971e-09
-6.45892e-08
9.05189e-09
-6.82971e-08
8.89098e-09
-7.19302e-08
8.70985e-09
-7.54808e-08
8.51083e-09
-7.89419e-08
8.2959e-09
-8.23075e-08
8.06665e-09
-8.55719e-08
7.82442e-09
-8.87301e-08
7.57029e-09
-9.17772e-08
7.30514e-09
-9.4709e-08
7.02969e-09
-9.75213e-08
6.74451e-09
-1.0021e-07
6.45007e-09
-1.02772e-07
6.14681e-09
-1.05203e-07
5.83509e-09
-1.07499e-07
5.51525e-09
-1.09659e-07
5.18756e-09
-1.11678e-07
4.85231e-09
-1.13553e-07
4.50978e-09
-1.15282e-07
4.16025e-09
-1.16861e-07
3.80398e-09
-1.18289e-07
3.44127e-09
-1.19562e-07
3.0724e-09
-1.20678e-07
2.69769e-09
-1.21635e-07
2.31745e-09
-1.22431e-07
1.93202e-09
-1.23064e-07
1.54177e-09
-1.23532e-07
1.14705e-09
-1.23833e-07
7.48262e-10
-1.23967e-07
3.45817e-10
-1.23931e-07
-5.98577e-11
-1.23724e-07
-4.68309e-10
-1.23347e-07
-8.79062e-10
-1.22797e-07
-1.29162e-09
-1.22076e-07
-1.70545e-09
-1.21181e-07
-2.12002e-09
-1.20114e-07
-2.53475e-09
-1.18875e-07
-2.94905e-09
-1.17464e-07
-3.3623e-09
-1.15882e-07
-3.77386e-09
-1.1413e-07
-4.18305e-09
-1.12209e-07
-4.58916e-09
-1.10121e-07
-4.99144e-09
-1.07868e-07
-5.38911e-09
-1.05453e-07
-5.78135e-09
-1.02877e-07
-6.16724e-09
-1.00145e-07
-6.54583e-09
-9.72599e-08
-6.91606e-09
-9.42253e-08
-7.27674e-09
-9.10462e-08
-7.62658e-09
-8.77278e-08
-7.96412e-09
-8.4276e-08
-8.28771e-09
-8.06976e-08
-8.59547e-09
-7.70001e-08
-8.88529e-09
-7.31923e-08
-9.15472e-09
-6.92837e-08
-9.401e-09
-6.52856e-08
-9.62097e-09
-6.12105e-08
-9.81104e-09
-5.70724e-08
-9.96716e-09
-5.28876e-08
-1.00848e-08
-4.86739e-08
-1.01588e-08
-4.44517e-08
-1.01838e-08
-4.02436e-08
-1.01535e-08
-3.60748e-08
-1.00614e-08
-3.1973e-08
-9.90069e-09
-2.79688e-08
-9.66412e-09
-2.40951e-08
-9.34451e-09
-2.03876e-08
-8.93488e-09
-1.68837e-08
-8.42893e-09
-1.36224e-08
-7.8216e-09
-1.0643e-08
-7.10999e-09
-7.98401e-09
-6.29457e-09
-5.68066e-09
-5.3811e-09
-3.76237e-09
-4.38345e-09
-2.24882e-09
-3.32782e-09
-1.14507e-09
-2.25903e-09
-4.3586e-10
-1.24861e-09
-7.95502e-11
-4.07379e-10
8.00829e-11
-1.63537e-10
9.96706e-11
-7.13738e-10
9.13989e-10
-1.68738e-09
2.11582e-09
-3.10617e-09
3.50618e-09
-4.97389e-09
4.95577e-09
-7.27869e-09
6.37927e-09
-9.99659e-09
7.72154e-09
-1.3095e-08
8.94928e-09
-1.65361e-08
1.00445e-08
-2.02787e-08
1.09998e-08
-2.42813e-08
1.18149e-08
-2.85027e-08
1.24944e-08
-3.29033e-08
1.30459e-08
-3.74458e-08
1.34787e-08
-4.20959e-08
1.38032e-08
-4.6822e-08
1.40298e-08
-5.15957e-08
1.41689e-08
-5.63914e-08
1.42304e-08
-6.11864e-08
1.42234e-08
-6.59605e-08
1.41563e-08
-7.0696e-08
1.40366e-08
-7.53772e-08
1.38709e-08
-7.99903e-08
1.36649e-08
-8.4523e-08
1.34237e-08
-8.89647e-08
1.31515e-08
-9.33058e-08
1.28519e-08
-9.75376e-08
1.25278e-08
-1.01653e-07
1.21817e-08
-1.05644e-07
1.18156e-08
-1.09505e-07
1.14312e-08
-1.1323e-07
1.10299e-08
-1.16813e-07
1.06129e-08
-1.20249e-07
1.01809e-08
-1.23534e-07
9.73487e-09
-1.26663e-07
9.2754e-09
-1.29631e-07
8.80309e-09
-1.32434e-07
8.31846e-09
-1.35068e-07
7.82199e-09
-1.3753e-07
7.31411e-09
-1.39815e-07
6.79528e-09
-1.41921e-07
6.26591e-09
-1.43844e-07
5.72647e-09
-1.4558e-07
5.17738e-09
-1.47126e-07
4.6191e-09
-1.48481e-07
4.05211e-09
-1.4964e-07
3.4769e-09
-1.50602e-07
2.89401e-09
-1.51365e-07
2.30396e-09
-1.51925e-07
1.70734e-09
-1.52281e-07
1.10474e-09
-1.52432e-07
4.96777e-10
-1.52376e-07
-1.15886e-10
-1.52112e-07
-7.32564e-10
-1.51638e-07
-1.35254e-09
-1.50955e-07
-1.97505e-09
-1.50061e-07
-2.59931e-09
-1.48957e-07
-3.22451e-09
-1.47642e-07
-3.84979e-09
-1.46116e-07
-4.47425e-09
-1.44382e-07
-5.09697e-09
-1.42439e-07
-5.71697e-09
-1.40288e-07
-6.33324e-09
-1.37933e-07
-6.9447e-09
-1.35374e-07
-7.55023e-09
-1.32615e-07
-8.14865e-09
-1.29657e-07
-8.73869e-09
-1.26505e-07
-9.31898e-09
-1.23163e-07
-9.88806e-09
-1.19635e-07
-1.04443e-08
-1.15926e-07
-1.09859e-08
-1.12041e-07
-1.1511e-08
-1.07988e-07
-1.20172e-08
-1.03774e-07
-1.25021e-08
-9.94065e-08
-1.29629e-08
-9.48954e-08
-1.33964e-08
-9.02512e-08
-1.37989e-08
-8.54861e-08
-1.41662e-08
-8.06134e-08
-1.44936e-08
-7.56486e-08
-1.47759e-08
-7.06089e-08
-1.50069e-08
-6.55136e-08
-1.51801e-08
-6.03845e-08
-1.52879e-08
-5.5246e-08
-1.53223e-08
-5.0125e-08
-1.52745e-08
-4.50513e-08
-1.5135e-08
-4.00579e-08
-1.48941e-08
-3.51805e-08
-1.45416e-08
-3.04575e-08
-1.40675e-08
-2.59299e-08
-1.34624e-08
-2.16408e-08
-1.2718e-08
-1.76345e-08
-1.18279e-08
-1.39554e-08
-1.07891e-08
-1.06464e-08
-9.60354e-09
-7.74719e-09
-8.28031e-09
-5.29127e-09
-6.83938e-09
-3.30296e-09
-5.31613e-09
-1.79384e-09
-3.76814e-09
-7.59254e-10
-2.28321e-09
-1.75639e-10
-9.90991e-10
-9.55582e-11
-2.5112e-10
3.5079e-10
-1.01651e-09
1.67938e-09
-2.30175e-09
3.40107e-09
-4.10702e-09
5.31145e-09
-6.42207e-09
7.27083e-09
-9.22588e-09
9.18309e-09
-1.24882e-08
1.09839e-08
-1.61717e-08
1.26328e-08
-2.02344e-08
1.41072e-08
-2.46315e-08
1.53969e-08
-2.93175e-08
1.65009e-08
-3.42474e-08
1.74244e-08
-3.93778e-08
1.81763e-08
-4.46676e-08
1.87685e-08
-5.00784e-08
1.92141e-08
-5.55752e-08
1.95265e-08
-6.11257e-08
1.97195e-08
-6.67012e-08
1.98059e-08
-7.22757e-08
1.97979e-08
-7.78261e-08
1.97067e-08
-8.33319e-08
1.95424e-08
-8.8775e-08
1.9314e-08
-9.41394e-08
1.90293e-08
-9.94107e-08
1.86951e-08
-1.04577e-07
1.83173e-08
-1.09625e-07
1.79008e-08
-1.14547e-07
1.74497e-08
-1.19333e-07
1.69676e-08
-1.23975e-07
1.64572e-08
-1.28465e-07
1.5921e-08
-1.32796e-07
1.53609e-08
-1.36961e-07
1.47785e-08
-1.40956e-07
1.41752e-08
-1.44773e-07
1.35521e-08
-1.48408e-07
1.29102e-08
-1.51855e-07
1.22504e-08
-1.5511e-07
1.15733e-08
-1.58167e-07
1.08797e-08
-1.61024e-07
1.01702e-08
-1.63674e-07
9.44559e-09
-1.66114e-07
8.70635e-09
-1.68341e-07
7.95316e-09
-1.7035e-07
7.18665e-09
-1.72139e-07
6.40749e-09
-1.73703e-07
5.61635e-09
-1.7504e-07
4.81393e-09
-1.76147e-07
4.00097e-09
-1.77021e-07
3.17825e-09
-1.7766e-07
2.34656e-09
-1.78062e-07
1.50675e-09
-1.78225e-07
6.59679e-10
-1.78148e-07
-1.93722e-10
-1.77828e-07
-1.0525e-09
-1.77265e-07
-1.91564e-09
-1.76457e-07
-2.7821e-09
-1.75406e-07
-3.65078e-09
-1.7411e-07
-4.52056e-09
-1.7257e-07
-5.39023e-09
-1.70785e-07
-6.25857e-09
-1.68758e-07
-7.12427e-09
-1.66489e-07
-7.98599e-09
-1.6398e-07
-8.84231e-09
-1.61233e-07
-9.69174e-09
-1.5825e-07
-1.05327e-08
-1.55035e-07
-1.13636e-08
-1.51591e-07
-1.21826e-08
-1.47923e-07
-1.29878e-08
-1.44034e-07
-1.37771e-08
-1.39929e-07
-1.45484e-08
-1.35616e-07
-1.5299e-08
-1.31101e-07
-1.60263e-08
-1.26391e-07
-1.67271e-08
-1.21495e-07
-1.7398e-08
-1.16423e-07
-1.8035e-08
-1.11186e-07
-1.86336e-08
-1.05796e-07
-1.91889e-08
-1.00267e-07
-1.96951e-08
-9.46151e-08
-2.01456e-08
-8.88577e-08
-2.05333e-08
-8.30146e-08
-2.08499e-08
-7.71083e-08
-2.10864e-08
-7.11636e-08
-2.12326e-08
-6.52082e-08
-2.12778e-08
-5.92726e-08
-2.12101e-08
-5.33906e-08
-2.1017e-08
-4.7599e-08
-2.06857e-08
-4.19377e-08
-2.02029e-08
-3.64493e-08
-1.95558e-08
-3.11793e-08
-1.87325e-08
-2.61748e-08
-1.77225e-08
-2.14843e-08
-1.65185e-08
-1.71561e-08
-1.51174e-08
-1.32372e-08
-1.35224e-08
-9.7713e-09
-1.17462e-08
-6.79673e-09
-9.81394e-09
-4.34408e-09
-7.76878e-09
-2.43405e-09
-5.67819e-09
-1.0759e-09
-3.64134e-09
-2.67638e-10
-1.79926e-09
-3.63199e-10
-3.32487e-10
6.83278e-10
-1.30263e-09
2.64952e-09
-2.88736e-09
4.9858e-09
-5.06523e-09
7.48932e-09
-7.81065e-09
1.00162e-08
-1.10918e-08
1.24643e-08
-1.48709e-08
1.4763e-08
-1.91051e-08
1.6867e-08
-2.3748e-08
1.87501e-08
-2.87512e-08
2.04001e-08
-3.40658e-08
2.18156e-08
-3.96436e-08
2.30022e-08
-4.54381e-08
2.39708e-08
-5.14051e-08
2.47355e-08
-5.75033e-08
2.53122e-08
-6.36945e-08
2.57177e-08
-6.99438e-08
2.59688e-08
-7.62196e-08
2.60816e-08
-8.24933e-08
2.60716e-08
-8.87395e-08
2.59529e-08
-9.49354e-08
2.57383e-08
-1.01061e-07
2.54393e-08
-1.07097e-07
2.50661e-08
-1.1303e-07
2.46274e-08
-1.18843e-07
2.41308e-08
-1.24525e-07
2.35827e-08
-1.30064e-07
2.29887e-08
-1.3545e-07
2.23532e-08
-1.40673e-07
2.16802e-08
-1.45724e-07
2.09726e-08
-1.50597e-07
2.02333e-08
-1.55283e-07
1.94643e-08
-1.59775e-07
1.86675e-08
-1.64067e-07
1.78444e-08
-1.68153e-07
1.69965e-08
-1.72028e-07
1.61247e-08
-1.75685e-07
1.52303e-08
-1.79119e-07
1.43141e-08
-1.82326e-07
1.3377e-08
-1.853e-07
1.242e-08
-1.88038e-07
1.14439e-08
-1.90534e-07
1.04495e-08
-1.92785e-07
9.43768e-09
-1.94787e-07
8.40938e-09
-1.96536e-07
7.36549e-09
-1.98029e-07
6.30694e-09
-1.99263e-07
5.23472e-09
-2.00235e-07
4.14986e-09
-2.00942e-07
3.05342e-09
-2.01381e-07
1.94652e-09
-2.01552e-07
8.30315e-10
-2.01452e-07
-2.9398e-10
-2.01079e-07
-1.4251e-09
-2.00433e-07
-2.56171e-09
-1.99513e-07
-3.70244e-09
-1.98318e-07
-4.84586e-09
-1.96848e-07
-5.99045e-09
-1.95103e-07
-7.13468e-09
-1.93085e-07
-8.27689e-09
-1.90794e-07
-9.41541e-09
-1.88231e-07
-1.05484e-08
-1.854e-07
-1.16741e-08
-1.82301e-07
-1.27905e-08
-1.78938e-07
-1.38955e-08
-1.75315e-07
-1.4987e-08
-1.71435e-07
-1.60626e-08
-1.67303e-07
-1.71197e-08
-1.62924e-07
-1.81557e-08
-1.58305e-07
-1.91676e-08
-1.53452e-07
-2.0152e-08
-1.48373e-07
-2.11054e-08
-1.43076e-07
-2.20237e-08
-1.37572e-07
-2.29022e-08
-1.31871e-07
-2.37358e-08
-1.25986e-07
-2.45187e-08
-1.19931e-07
-2.52442e-08
-1.13721e-07
-2.5905e-08
-1.07374e-07
-2.64925e-08
-1.0091e-07
-2.69975e-08
-9.43505e-08
-2.74092e-08
-8.77208e-08
-2.77161e-08
-8.10481e-08
-2.79053e-08
-7.43629e-08
-2.7963e-08
-6.76988e-08
-2.78742e-08
-6.10925e-08
-2.76233e-08
-5.45841e-08
-2.71941e-08
-4.82167e-08
-2.65703e-08
-4.20364e-08
-2.57361e-08
-3.60919e-08
-2.4677e-08
-3.04338e-08
-2.33806e-08
-2.51139e-08
-2.18384e-08
-2.01841e-08
-2.00472e-08
-1.56952e-08
-1.80114e-08
-1.16952e-08
-1.57462e-08
-8.22807e-09
-1.32811e-08
-5.33192e-09
-1.06649e-08
-3.03814e-09
-7.97196e-09
-1.37144e-09
-5.30804e-09
-3.5164e-10
-2.81907e-09
-7.14836e-10
-4.06066e-10
1.08935e-09
-1.56551e-09
3.80896e-09
-3.43045e-09
6.85075e-09
-5.95928e-09
1.00182e-08
-9.111e-09
1.3168e-08
-1.28425e-08
1.61957e-08
-1.71074e-08
1.9028e-08
-2.18569e-08
2.16164e-08
-2.70397e-08
2.39329e-08
-3.26037e-08
2.59641e-08
-3.84968e-08
2.77087e-08
-4.4668e-08
2.91733e-08
-5.10679e-08
3.03708e-08
-5.765e-08
3.13176e-08
-6.43704e-08
3.20327e-08
-7.11886e-08
3.25359e-08
-7.80674e-08
3.28476e-08
-8.49729e-08
3.29871e-08
-9.18745e-08
3.29733e-08
-9.87448e-08
3.28231e-08
-1.05559e-07
3.25525e-08
-1.12295e-07
3.21756e-08
-1.18934e-07
3.17047e-08
-1.25457e-07
3.11509e-08
-1.3185e-07
3.05235e-08
-1.38098e-07
2.98306e-08
-1.44188e-07
2.90791e-08
-1.5011e-07
2.82747e-08
-1.55852e-07
2.74224e-08
-1.61405e-07
2.6526e-08
-1.66761e-07
2.5589e-08
-1.71911e-07
2.46142e-08
-1.76847e-07
2.36039e-08
-1.81563e-07
2.25603e-08
-1.86052e-07
2.1485e-08
-1.90307e-07
2.03796e-08
-1.94322e-07
1.92453e-08
-1.98091e-07
1.80836e-08
-2.0161e-07
1.68956e-08
-2.04872e-07
1.56824e-08
-2.07873e-07
1.44451e-08
-2.10609e-07
1.31849e-08
-2.13074e-07
1.19028e-08
-2.15265e-07
1.06001e-08
-2.17177e-07
9.2778e-09
-2.18807e-07
7.93724e-09
-2.20152e-07
6.57964e-09
-2.21209e-07
5.20631e-09
-2.21974e-07
3.81859e-09
-2.22445e-07
2.41792e-09
-2.22621e-07
1.00576e-09
-2.22498e-07
-4.16342e-10
-2.22077e-07
-1.84679e-09
-2.21354e-07
-3.2839e-09
-2.20331e-07
-4.72594e-09
-2.19006e-07
-6.17109e-09
-2.17379e-07
-7.61746e-09
-2.1545e-07
-9.06308e-09
-2.13221e-07
-1.05059e-08
-2.10693e-07
-1.19438e-08
-2.07867e-07
-1.33744e-08
-2.04745e-07
-1.47956e-08
-2.01331e-07
-1.62047e-08
-1.97628e-07
-1.75991e-08
-1.93639e-07
-1.89762e-08
-1.89368e-07
-2.03329e-08
-1.84822e-07
-2.1666e-08
-1.80006e-07
-2.29721e-08
-1.74926e-07
-2.42473e-08
-1.6959e-07
-2.54876e-08
-1.64007e-07
-2.66883e-08
-1.58187e-07
-2.78442e-08
-1.52139e-07
-2.89496e-08
-1.45877e-07
-2.9998e-08
-1.39414e-07
-3.0982e-08
-1.32765e-07
-3.18933e-08
-1.25947e-07
-3.27228e-08
-1.1898e-07
-3.34597e-08
-1.11885e-07
-3.40926e-08
-1.04686e-07
-3.46083e-08
-9.74093e-08
-3.49924e-08
-9.00854e-08
-3.52292e-08
-8.27467e-08
-3.53017e-08
-7.5429e-08
-3.51919e-08
-6.81717e-08
-3.48806e-08
-6.10174e-08
-3.43484e-08
-5.40119e-08
-3.35758e-08
-4.7204e-08
-3.2544e-08
-4.06452e-08
-3.12358e-08
-3.43889e-08
-2.96369e-08
-2.849e-08
-2.77373e-08
-2.30037e-08
-2.55334e-08
-1.79847e-08
-2.30304e-08
-1.34858e-08
-2.0245e-08
-9.55716e-09
-1.72097e-08
-6.24517e-09
-1.39769e-08
-3.59263e-09
-1.06245e-08
-1.63964e-09
-7.26103e-09
-4.26376e-10
-4.03233e-09
-1.14121e-09
-4.71484e-10
1.56083e-09
-1.80282e-09
5.1403e-09
-3.92519e-09
8.97311e-09
-6.77906e-09
1.2872e-08
-1.03089e-08
1.66978e-08
-1.44601e-08
2.0347e-08
-1.9178e-08
2.37458e-08
-2.44067e-08
2.68452e-08
-3.00902e-08
2.96163e-08
-3.61723e-08
3.20462e-08
-4.25977e-08
3.41341e-08
-4.93126e-08
3.58882e-08
-5.62654e-08
3.73235e-08
-6.34071e-08
3.84593e-08
-7.0692e-08
3.93175e-08
-7.80774e-08
3.99214e-08
-8.55244e-08
4.02945e-08
-9.29972e-08
4.046e-08
-1.00464e-07
4.04397e-08
-1.07895e-07
4.0254e-08
-1.15264e-07
3.99217e-08
-1.22548e-07
3.94595e-08
-1.29725e-07
3.88825e-08
-1.36778e-07
3.82036e-08
-1.43689e-07
3.74344e-08
-1.50443e-07
3.65846e-08
-1.57026e-07
3.56625e-08
-1.63427e-07
3.46751e-08
-1.69633e-07
3.36284e-08
-1.75634e-07
3.25274e-08
-1.81422e-07
3.13762e-08
-1.86986e-07
3.01783e-08
-1.92318e-07
2.89367e-08
-1.97412e-07
2.7654e-08
-2.02259e-07
2.63322e-08
-2.06853e-07
2.49735e-08
-2.11187e-07
2.35794e-08
-2.15255e-07
2.21516e-08
-2.19051e-07
2.06916e-08
-2.2257e-07
1.92009e-08
-2.25805e-07
1.76807e-08
-2.28753e-07
1.61326e-08
-2.31408e-07
1.45579e-08
-2.33766e-07
1.29581e-08
-2.35823e-07
1.13346e-08
-2.37575e-07
9.68887e-09
-2.39018e-07
8.02254e-09
-2.40149e-07
6.33721e-09
-2.40965e-07
4.63454e-09
-2.41463e-07
2.91627e-09
-2.41641e-07
1.18423e-09
-2.41498e-07
-5.59695e-10
-2.41031e-07
-2.31354e-09
-2.4024e-07
-4.07526e-09
-2.39123e-07
-5.8427e-09
-2.37681e-07
-7.61367e-09
-2.35912e-07
-9.38584e-09
-2.33818e-07
-1.11568e-08
-2.314e-07
-1.2924e-08
-2.28659e-07
-1.46849e-08
-2.25597e-07
-1.64367e-08
-2.22216e-07
-1.81765e-08
-2.18519e-07
-1.99013e-08
-2.14511e-07
-2.16078e-08
-2.10194e-07
-2.32928e-08
-2.05575e-07
-2.49524e-08
-2.00658e-07
-2.65829e-08
-1.9545e-07
-2.81799e-08
-1.89958e-07
-2.97388e-08
-1.84191e-07
-3.12546e-08
-1.78158e-07
-3.27214e-08
-1.71869e-07
-3.41331e-08
-1.65336e-07
-3.54826e-08
-1.58572e-07
-3.67619e-08
-1.51592e-07
-3.79622e-08
-1.44412e-07
-3.90734e-08
-1.37051e-07
-4.00841e-08
-1.29529e-07
-4.09819e-08
-1.21869e-07
-4.17526e-08
-1.14096e-07
-4.23804e-08
-1.0624e-07
-4.28484e-08
-9.8332e-08
-4.31376e-08
-9.04058e-08
-4.32279e-08
-8.24997e-08
-4.30979e-08
-7.46552e-08
-4.27252e-08
-6.69168e-08
-4.20868e-08
-5.93326e-08
-4.116e-08
-5.19538e-08
-3.99228e-08
-4.48341e-08
-3.83554e-08
-3.80297e-08
-3.64413e-08
-3.15983e-08
-3.41687e-08
-2.55985e-08
-3.15332e-08
-2.0089e-08
-2.85399e-08
-1.51277e-08
-2.52063e-08
-1.07713e-08
-2.15661e-08
-7.07493e-09
-1.76734e-08
-4.09256e-09
-1.36069e-08
-1.87882e-09
-9.47477e-09
-4.91882e-10
-5.41926e-09
-1.63309e-09
-5.29004e-10
2.08984e-09
-2.01455e-09
6.62585e-09
-4.3705e-09
1.13291e-08
-7.52179e-09
1.60233e-08
-1.13996e-08
2.05756e-08
-1.59387e-08
2.48861e-08
-2.10755e-08
2.88826e-08
-2.67477e-08
3.25174e-08
-3.28939e-08
3.57625e-08
-3.94538e-08
3.86062e-08
-4.63689e-08
4.10491e-08
-5.35825e-08
4.31018e-08
-6.10407e-08
4.47818e-08
-6.86927e-08
4.61113e-08
-7.64907e-08
4.71155e-08
-8.43906e-08
4.78213e-08
-9.23518e-08
4.82557e-08
-1.00337e-07
4.84453e-08
-1.08313e-07
4.84153e-08
-1.16248e-07
4.81896e-08
-1.24116e-07
4.77897e-08
-1.31892e-07
4.72354e-08
-1.39554e-07
4.65441e-08
-1.47081e-07
4.57311e-08
-1.54457e-07
4.48099e-08
-1.61664e-07
4.3792e-08
-1.68689e-07
4.26873e-08
-1.75518e-07
4.15041e-08
-1.82139e-07
4.02495e-08
-1.88541e-07
3.89295e-08
-1.94714e-07
3.75492e-08
-2.00649e-07
3.61127e-08
-2.06335e-07
3.46236e-08
-2.11767e-07
3.30851e-08
-2.16934e-07
3.14999e-08
-2.21831e-07
2.98702e-08
-2.2645e-07
2.81982e-08
-2.30784e-07
2.6486e-08
-2.34828e-07
2.47352e-08
-2.38575e-07
2.29478e-08
-2.42019e-07
2.11254e-08
-2.45156e-07
1.92696e-08
-2.47981e-07
1.73823e-08
-2.50488e-07
1.54651e-08
-2.52673e-07
1.35199e-08
-2.54533e-07
1.15484e-08
-2.56063e-07
9.55247e-09
-2.57259e-07
7.53412e-09
-2.5812e-07
5.49534e-09
-2.58642e-07
3.43822e-09
-2.58823e-07
1.36493e-09
-2.5866e-07
-7.22263e-10
-2.58153e-07
-2.821e-09
-2.57299e-07
-4.92884e-09
-2.56099e-07
-7.04322e-09
-2.54551e-07
-9.1615e-09
-2.52656e-07
-1.12809e-08
-2.50414e-07
-1.33986e-08
-2.47827e-07
-1.55115e-08
-2.44895e-07
-1.76165e-08
-2.41621e-07
-1.97104e-08
-2.38008e-07
-2.17896e-08
-2.34059e-07
-2.38506e-08
-2.29777e-07
-2.58896e-08
-2.25167e-07
-2.79023e-08
-2.20235e-07
-2.98845e-08
-2.14987e-07
-3.18315e-08
-2.09428e-07
-3.37382e-08
-2.03568e-07
-3.55989e-08
-1.97415e-07
-3.74077e-08
-1.90979e-07
-3.91578e-08
-1.8427e-07
-4.08415e-08
-1.77302e-07
-4.24506e-08
-1.70089e-07
-4.39755e-08
-1.62645e-07
-4.54058e-08
-1.54989e-07
-4.67295e-08
-1.4714e-07
-4.79333e-08
-1.3912e-07
-4.90023e-08
-1.30952e-07
-4.992e-08
-1.22665e-07
-5.0668e-08
-1.14287e-07
-5.12263e-08
-1.05851e-07
-5.15729e-08
-9.73949e-08
-5.16844e-08
-8.89567e-08
-5.15361e-08
-8.058e-08
-5.11019e-08
-7.23112e-08
-5.03556e-08
-6.42002e-08
-4.92709e-08
-5.63003e-08
-4.78227e-08
-4.86674e-08
-4.59883e-08
-4.13602e-08
-4.37485e-08
-3.44393e-08
-4.10897e-08
-2.79665e-08
-3.8006e-08
-2.2005e-08
-3.45015e-08
-1.66178e-08
-3.05935e-08
-1.18683e-08
-2.63156e-08
-7.82015e-09
-2.17215e-08
-4.53813e-09
-1.68889e-08
-2.08983e-09
-1.19231e-08
-5.48793e-10
-6.9603e-09
-2.18189e-09
-5.79302e-10
2.66914e-09
-2.20209e-09
8.24865e-09
-4.76821e-09
1.38952e-08
-8.18936e-09
1.94445e-08
-1.2385e-08
2.47713e-08
-1.72799e-08
2.97809e-08
-2.28022e-08
3.4405e-08
-2.88831e-08
3.85983e-08
-3.54558e-08
4.23352e-08
-4.24558e-08
4.56062e-08
-4.98211e-08
4.84144e-08
-5.74925e-08
5.07732e-08
-6.54137e-08
5.2703e-08
-7.3532e-08
5.42295e-08
-8.1798e-08
5.53815e-08
-9.01659e-08
5.61893e-08
-9.85939e-08
5.66837e-08
-1.07044e-07
5.68949e-08
-1.1548e-07
5.68517e-08
-1.23871e-07
5.65811e-08
-1.3219e-07
5.61079e-08
-1.40409e-07
5.54546e-08
-1.48506e-07
5.46413e-08
-1.5646e-07
5.36855e-08
-1.64253e-07
5.26029e-08
-1.71868e-07
5.14067e-08
-1.79289e-07
5.01083e-08
-1.86503e-07
4.87177e-08
-1.93496e-07
4.72429e-08
-2.00258e-07
4.56911e-08
-2.06777e-07
4.40681e-08
-2.13043e-07
4.2379e-08
-2.19047e-07
4.06279e-08
-2.24781e-07
3.88187e-08
-2.30236e-07
3.69545e-08
-2.35404e-07
3.50382e-08
-2.40278e-07
3.30722e-08
-2.4485e-07
3.10589e-08
-2.49116e-07
2.90006e-08
-2.53067e-07
2.68994e-08
-2.56699e-07
2.47572e-08
-2.60006e-07
2.25762e-08
-2.62982e-07
2.03584e-08
-2.65623e-07
1.81058e-08
-2.67923e-07
1.58205e-08
-2.69879e-07
1.35046e-08
-2.71487e-07
1.11605e-08
-2.72744e-07
8.79036e-09
-2.73645e-07
6.39656e-09
-2.74188e-07
3.98155e-09
-2.74371e-07
1.54791e-09
-2.74192e-07
-9.01719e-10
-2.73648e-07
-3.36458e-09
-2.72739e-07
-5.83779e-09
-2.71464e-07
-8.31838e-09
-2.69822e-07
-1.08032e-08
-2.67814e-07
-1.32891e-08
-2.6544e-07
-1.57727e-08
-2.62701e-07
-1.82504e-08
-2.59599e-07
-2.07185e-08
-2.56136e-07
-2.31733e-08
-2.52315e-07
-2.56106e-08
-2.4814e-07
-2.80263e-08
-2.43613e-07
-3.04158e-08
-2.38741e-07
-3.27743e-08
-2.33529e-07
-3.50967e-08
-2.27983e-07
-3.73775e-08
-2.22111e-07
-3.96107e-08
-2.1592e-07
-4.17898e-08
-2.0942e-07
-4.39076e-08
-2.02621e-07
-4.59562e-08
-1.95536e-07
-4.79268e-08
-1.88177e-07
-4.98096e-08
-1.80559e-07
-5.15936e-08
-1.72698e-07
-5.32665e-08
-1.64613e-07
-5.48144e-08
-1.56325e-07
-5.62221e-08
-1.47855e-07
-5.74722e-08
-1.39229e-07
-5.85457e-08
-1.30475e-07
-5.94215e-08
-1.21625e-07
-6.00765e-08
-1.12712e-07
-6.04857e-08
-1.03775e-07
-6.06223e-08
-9.48526e-08
-6.0458e-08
-8.59911e-08
-5.99634e-08
-7.72382e-08
-5.91085e-08
-6.86456e-08
-5.78635e-08
-6.02683e-08
-5.62001e-08
-5.21644e-08
-5.40921e-08
-4.43951e-08
-5.15178e-08
-3.70238e-08
-4.8461e-08
-3.0116e-08
-4.49138e-08
-2.37389e-08
-4.08786e-08
-1.7961e-08
-3.63713e-08
-1.28524e-08
-3.14242e-08
-8.4847e-09
-2.60892e-08
-4.9325e-09
-2.04411e-08
-2.27484e-09
-1.45807e-08
-5.98004e-10
-8.63714e-09
-2.77989e-09
-6.23272e-10
3.29241e-09
-2.36767e-09
9.99306e-09
-5.12192e-09
1.66494e-08
-8.7866e-09
2.31092e-08
-1.3271e-08
2.92557e-08
-1.84908e-08
3.50007e-08
-2.43667e-08
4.02809e-08
-3.08232e-08
4.50548e-08
-3.77884e-08
4.93004e-08
-4.51936e-08
5.30113e-08
-5.29733e-08
5.61941e-08
-6.10656e-08
5.88655e-08
-6.94119e-08
6.10494e-08
-7.79576e-08
6.27752e-08
-8.66516e-08
6.40755e-08
-9.54471e-08
6.49847e-08
-1.04301e-07
6.55372e-08
-1.13173e-07
6.57671e-08
-1.22028e-07
6.57067e-08
-1.30833e-07
6.53863e-08
-1.39559e-07
6.4834e-08
-1.4818e-07
6.40751e-08
-1.56671e-07
6.31323e-08
-1.65011e-07
6.20257e-08
-1.73181e-07
6.07728e-08
-1.81163e-07
5.93888e-08
-1.88942e-07
5.78868e-08
-1.96502e-07
5.6278e-08
-2.03831e-07
5.45718e-08
-2.10916e-07
5.27764e-08
-2.17747e-07
5.08986e-08
-2.24312e-07
4.89441e-08
-2.30602e-07
4.69181e-08
-2.36608e-07
4.48247e-08
-2.42321e-07
4.26677e-08
-2.47733e-07
4.04504e-08
-2.52837e-07
3.81758e-08
-2.57625e-07
3.58468e-08
-2.6209e-07
3.34658e-08
-2.66226e-07
3.10354e-08
-2.70027e-07
2.85579e-08
-2.73486e-07
2.60358e-08
-2.76599e-07
2.34714e-08
-2.79361e-07
2.08671e-08
-2.81765e-07
1.82254e-08
-2.83809e-07
1.55487e-08
-2.85489e-07
1.28396e-08
-2.86799e-07
1.01008e-08
-2.87738e-07
7.33506e-09
-2.88301e-07
4.54513e-09
-2.88487e-07
1.73399e-09
-2.88294e-07
-1.09529e-09
-2.87719e-07
-3.93953e-09
-2.86761e-07
-6.79542e-09
-2.8542e-07
-9.65953e-09
-2.83695e-07
-1.25283e-08
-2.81586e-07