/*--------------------------------*- C++ -*----------------------------------*\
| =========                 |                                                 |
| \\      /  F ield         | OpenFOAM: The Open Source CFD Toolbox           |
|  \\    /   O peration     | Version:  2512                                  |
|   \\  /    A nd           | Website:  www.openfoam.com                      |
|    \\/     M anipulation  |                                                 |
\*---------------------------------------------------------------------------*/
FoamFile
{
    version     2.0;
    format      ascii;
    arch        "LSB;label=32;scalar=64";
    class       volVectorField;
    location    "0.06";
    object      U;
}
// * * * * * * * * * * * * * * * * * * * * * * * * * * * * * * * * * * * * * //

dimensions      [0 1 -1 0 0 0 0];

internalField   nonuniform List<vector> 
10000
(
(1.90463e-06 -5.47403e-06 0)
(1.18596e-05 -7.10619e-06 0)
(1.70751e-05 -3.43967e-06 0)
(1.58148e-05 8.34372e-08 0)
(3.91633e-06 3.57339e-06 0)
(-1.71395e-05 6.71009e-06 0)
(-4.66951e-05 9.45192e-06 0)
(-8.38115e-05 1.18019e-05 0)
(-0.000127513 1.37706e-05 0)
(-0.000176803 1.53776e-05 0)
(-0.000230753 1.66685e-05 0)
(-0.000288527 1.76985e-05 0)
(-0.000349356 1.85085e-05 0)
(-0.000412551 1.91194e-05 0)
(-0.000477498 1.95422e-05 0)
(-0.000543661 1.97985e-05 0)
(-0.000610575 1.99237e-05 0)
(-0.000677839 1.99487e-05 0)
(-0.000745106 1.98873e-05 0)
(-0.000812078 1.97425e-05 0)
(-0.000878495 1.95217e-05 0)
(-0.000944141 1.92424e-05 0)
(-0.00100883 1.89205e-05 0)
(-0.0010724 1.85633e-05 0)
(-0.00113471 1.81714e-05 0)
(-0.00119564 1.77439e-05 0)
(-0.00125508 1.72844e-05 0)
(-0.00131293 1.68004e-05 0)
(-0.00136912 1.62971e-05 0)
(-0.00142356 1.5775e-05 0)
(-0.00147617 1.52329e-05 0)
(-0.0015269 1.46701e-05 0)
(-0.00157566 1.40873e-05 0)
(-0.00162239 1.34866e-05 0)
(-0.00166705 1.28697e-05 0)
(-0.00170955 1.22364e-05 0)
(-0.00174986 1.15862e-05 0)
(-0.00178791 1.09199e-05 0)
(-0.00182365 1.02384e-05 0)
(-0.00185702 9.5417e-06 0)
(-0.00188798 8.82911e-06 0)
(-0.00191647 8.10103e-06 0)
(-0.00194245 7.35897e-06 0)
(-0.00196587 6.60434e-06 0)
(-0.00198668 5.83743e-06 0)
(-0.00200484 5.05759e-06 0)
(-0.00202032 4.26441e-06 0)
(-0.00203307 3.45862e-06 0)
(-0.00204306 2.64185e-06 0)
(-0.00205025 1.81562e-06 0)
(-0.00205462 9.80691e-07 0)
(-0.00205613 1.37067e-07 0)
(-0.00205477 -7.1475e-07 0)
(-0.0020505 -1.57431e-06 0)
(-0.00204331 -2.44003e-06 0)
(-0.00203319 -3.3101e-06 0)
(-0.00202013 -4.18303e-06 0)
(-0.00200411 -5.05785e-06 0)
(-0.00198515 -5.93368e-06 0)
(-0.00196323 -6.80933e-06 0)
(-0.00193836 -7.68333e-06 0)
(-0.00191056 -8.55388e-06 0)
(-0.00187985 -9.41904e-06 0)
(-0.00184624 -1.02772e-05 0)
(-0.00180975 -1.11269e-05 0)
(-0.00177044 -1.19669e-05 0)
(-0.00172832 -1.27956e-05 0)
(-0.00168345 -1.36112e-05 0)
(-0.00163587 -1.44111e-05 0)
(-0.00158565 -1.51931e-05 0)
(-0.00153286 -1.59549e-05 0)
(-0.00147756 -1.66939e-05 0)
(-0.00141985 -1.7407e-05 0)
(-0.00135983 -1.80904e-05 0)
(-0.0012976 -1.87398e-05 0)
(-0.00123331 -1.93501e-05 0)
(-0.00116708 -1.99161e-05 0)
(-0.0010991 -2.04313e-05 0)
(-0.00102955 -2.08876e-05 0)
(-0.000958648 -2.12757e-05 0)
(-0.000886654 -2.1585e-05 0)
(-0.000813854 -2.18033e-05 0)
(-0.000740578 -2.19168e-05 0)
(-0.000667202 -2.19099e-05 0)
(-0.000594156 -2.17655e-05 0)
(-0.000521926 -2.14642e-05 0)
(-0.000451057 -2.09841e-05 0)
(-0.000382166 -2.03005e-05 0)
(-0.00031594 -1.93868e-05 0)
(-0.000253138 -1.82143e-05 0)
(-0.000194596 -1.67522e-05 0)
(-0.000141222 -1.49683e-05 0)
(-9.39852e-05 -1.28312e-05 0)
(-5.39015e-05 -1.03138e-05 0)
(-2.1986e-05 -7.4047e-06 0)
(8.28675e-07 -4.13488e-06 0)
(1.38449e-05 -6.38792e-07 0)
(1.69854e-05 2.7131e-06 0)
(1.19965e-05 4.98434e-06 0)
(3.93672e-06 3.93724e-06 0)
(2.37104e-06 -1.08629e-05 0)
(8.61267e-06 -1.39408e-05 0)
(5.76441e-06 -8.57985e-07 0)
(-1.56734e-05 1.58102e-05 0)
(-5.89551e-05 3.34869e-05 0)
(-0.000124178 5.04588e-05 0)
(-0.000210332 6.59691e-05 0)
(-0.000315677 7.97117e-05 0)
(-0.000438076 9.16054e-05 0)
(-0.000575286 0.000101684 0)
(-0.000725082 0.000110038 0)
(-0.000885347 0.000116818 0)
(-0.00105411 0.000122188 0)
(-0.00122956 0.0001263 0)
(-0.00141007 0.000129287 0)
(-0.00159418 0.000131274 0)
(-0.00178061 0.000132397 0)
(-0.00196824 0.000132782 0)
(-0.00215609 0.000132533 0)
(-0.00234331 0.000131734 0)
(-0.00252915 0.000130457 0)
(-0.00271299 0.000128769 0)
(-0.00289427 0.000126734 0)
(-0.00307251 0.000124401 0)
(-0.00324731 0.000121809 0)
(-0.0034183 0.000118986 0)
(-0.00358514 0.000115956 0)
(-0.00374756 0.000112741 0)
(-0.0039053 0.000109359 0)
(-0.00405812 0.000105824 0)
(-0.00420581 0.000102148 0)
(-0.00434814 9.83359e-05 0)
(-0.00448493 9.43932e-05 0)
(-0.00461601 9.03248e-05 0)
(-0.00474118 8.61365e-05 0)
(-0.00486029 8.18331e-05 0)
(-0.00497316 7.74179e-05 0)
(-0.00507965 7.28939e-05 0)
(-0.00517959 6.82642e-05 0)
(-0.00527285 6.35314e-05 0)
(-0.00535927 5.86987e-05 0)
(-0.00543872 5.37694e-05 0)
(-0.00551107 4.87477e-05 0)
(-0.00557619 4.3637e-05 0)
(-0.00563396 3.8441e-05 0)
(-0.00568426 3.31635e-05 0)
(-0.00572699 2.78083e-05 0)
(-0.00576204 2.23801e-05 0)
(-0.00578931 1.68839e-05 0)
(-0.00580872 1.13252e-05 0)
(-0.00582018 5.70954e-06 0)
(-0.00582363 4.25713e-08 0)
(-0.005819 -5.66975e-06 0)
(-0.00580623 -1.14215e-05 0)
(-0.00578527 -1.72054e-05 0)
(-0.00575611 -2.30139e-05 0)
(-0.00571869 -2.88385e-05 0)
(-0.00567303 -3.46711e-05 0)
(-0.00561911 -4.05036e-05 0)
(-0.00555694 -4.63275e-05 0)
(-0.00548655 -5.21335e-05 0)
(-0.00540797 -5.79115e-05 0)
(-0.00532127 -6.36511e-05 0)
(-0.00522649 -6.93416e-05 0)
(-0.00512372 -7.49724e-05 0)
(-0.00501305 -8.05327e-05 0)
(-0.0048946 -8.60107e-05 0)
(-0.00476851 -9.13933e-05 0)
(-0.00463491 -9.66658e-05 0)
(-0.00449399 -0.000101812 0)
(-0.00434594 -0.000106815 0)
(-0.00419097 -0.000111654 0)
(-0.00402936 -0.000116308 0)
(-0.00386137 -0.000120751 0)
(-0.00368735 -0.000124955 0)
(-0.00350767 -0.000128885 0)
(-0.00332274 -0.000132502 0)
(-0.00313305 -0.000135762 0)
(-0.00293915 -0.000138612 0)
(-0.00274167 -0.000140993 0)
(-0.00254133 -0.000142838 0)
(-0.00233895 -0.000144069 0)
(-0.00213544 -0.000144601 0)
(-0.00193186 -0.000144338 0)
(-0.00172941 -0.000143173 0)
(-0.0015294 -0.00014099 0)
(-0.00133333 -0.000137665 0)
(-0.00114284 -0.000133066 0)
(-0.000959768 -0.000127054 0)
(-0.000786082 -0.00011949 0)
(-0.000623917 -0.000110242 0)
(-0.000475535 -9.91901e-05 0)
(-0.000343271 -8.62522e-05 0)
(-0.000229452 -7.14138e-05 0)
(-0.000136245 -5.47929e-05 0)
(-6.54241e-05 -3.6766e-05 0)
(-1.79731e-05 -1.82032e-05 0)
(6.59391e-06 -8.8385e-07 0)
(1.16465e-05 1.16308e-05 0)
(4.99054e-06 1.19752e-05 0)
(1.92049e-06 -1.55346e-05 0)
(-1.25637e-06 -8.43193e-06 0)
(-2.50084e-05 2.25145e-05 0)
(-7.55335e-05 6.36056e-05 0)
(-0.00015655 0.000107818 0)
(-0.00026871 0.000151238 0)
(-0.000410946 0.000191709 0)
(-0.000581099 0.000228178 0)
(-0.000776422 0.000260205 0)
(-0.000993872 0.0002877 0)
(-0.00123033 0.000310799 0)
(-0.00148276 0.000329761 0)
(-0.0017483 0.000344924 0)
(-0.00202426 0.000356648 0)
(-0.00230819 0.000365286 0)
(-0.00259788 0.000371181 0)
(-0.00289136 0.00037466 0)
(-0.00318688 0.000376036 0)
(-0.00348291 0.000375586 0)
(-0.00377811 0.000373551 0)
(-0.00407129 0.000370145 0)
(-0.00436144 0.000365553 0)
(-0.00464766 0.000359935 0)
(-0.00492919 0.000353427 0)
(-0.00520534 0.000346144 0)
(-0.00547552 0.00033818 0)
(-0.0057392 0.000329608 0)
(-0.0059959 0.00032049 0)
(-0.0062452 0.000310875 0)
(-0.00648671 0.000300805 0)
(-0.00672008 0.000290313 0)
(-0.00694496 0.000279426 0)
(-0.00716105 0.00026816 0)
(-0.00736804 0.000256534 0)
(-0.00756566 0.000244562 0)
(-0.00775363 0.000232258 0)
(-0.0079317 0.000219632 0)
(-0.0080996 0.000206697 0)
(-0.00825711 0.00019346 0)
(-0.00840399 0.000179933 0)
(-0.00854002 0.000166124 0)
(-0.00866497 0.000152044 0)
(-0.00877865 0.000137703 0)
(-0.00888085 0.000123114 0)
(-0.00897138 0.000108285 0)
(-0.00905008 9.32307e-05 0)
(-0.00911676 7.79627e-05 0)
(-0.00917128 6.2495e-05 0)
(-0.00921349 4.6842e-05 0)
(-0.00924324 3.10187e-05 0)
(-0.00926043 1.50411e-05 0)
(-0.00926494 -1.07386e-06 0)
(-0.00925668 -1.73087e-05 0)
(-0.00923557 -3.36447e-05 0)
(-0.00920154 -5.0062e-05 0)
(-0.00915455 -6.65397e-05 0)
(-0.00909457 -8.30554e-05 0)
(-0.00902157 -9.95861e-05 0)
(-0.00893557 -0.000116108 0)
(-0.00883659 -0.000132597 0)
(-0.00872467 -0.000149027 0)
(-0.00859988 -0.000165371 0)
(-0.00846229 -0.0001816 0)
(-0.00831202 -0.000197685 0)
(-0.0081492 -0.000213593 0)
(-0.00797399 -0.000229294 0)
(-0.00778656 -0.000244753 0)
(-0.00758714 -0.000259931 0)
(-0.00737597 -0.000274787 0)
(-0.00715333 -0.000289275 0)
(-0.00691953 -0.000303344 0)
(-0.00667494 -0.000316936 0)
(-0.00641998 -0.000329988 0)
(-0.00615509 -0.000342426 0)
(-0.00588082 -0.000354165 0)
(-0.00559777 -0.000365109 0)
(-0.00530661 -0.000375147 0)
(-0.00500812 -0.00038415 0)
(-0.00470317 -0.000391975 0)
(-0.00439278 -0.000398454 0)
(-0.00407808 -0.0004034 0)
(-0.00376034 -0.000406602 0)
(-0.00344103 -0.000407825 0)
(-0.00312179 -0.00040681 0)
(-0.00280445 -0.000403273 0)
(-0.00249107 -0.000396909 0)
(-0.00218391 -0.000387397 0)
(-0.00188548 -0.000374402 0)
(-0.0015985 -0.00035759 0)
(-0.00132591 -0.000336638 0)
(-0.00107082 -0.000311259 0)
(-0.00083647 -0.000281239 0)
(-0.000626136 -0.000246493 0)
(-0.000442986 -0.000207158 0)
(-0.000289869 -0.000163748 0)
(-0.000168994 -0.000117423 0)
(-8.14445e-05 -7.04295e-05 0)
(-2.64787e-05 -2.67656e-05 0)
(-7.05016e-07 6.64306e-06 0)
(2.76039e-06 1.70016e-05 0)
(-7.75193e-07 -1.16683e-05 0)
(-1.67753e-05 1.47203e-05 0)
(-6.52638e-05 7.3595e-05 0)
(-0.000149371 0.000147658 0)
(-0.000271465 0.000226817 0)
(-0.000432013 0.000304948 0)
(-0.000629671 0.000378417 0)
(-0.000861927 0.0004452 0)
(-0.00112559 0.000504338 0)
(-0.00141709 0.000555529 0)
(-0.00173271 0.000598874 0)
(-0.00206873 0.000634724 0)
(-0.0024216 0.00066359 0)
(-0.00278798 0.000686065 0)
(-0.0031648 0.000702767 0)
(-0.00354922 0.000714306 0)
(-0.0039387 0.000721268 0)
(-0.00433097 0.0007242 0)
(-0.00472403 0.00072361 0)
(-0.0051161 0.000719953 0)
(-0.00550563 0.000713631 0)
(-0.00589124 0.000704995 0)
(-0.00627173 0.000694345 0)
(-0.00664607 0.000681937 0)
(-0.00701332 0.000667992 0)
(-0.00737269 0.000652696 0)
(-0.00772343 0.000636195 0)
(-0.00806491 0.000618612 0)
(-0.00839655 0.000600045 0)
(-0.0087178 0.000580575 0)
(-0.00902818 0.000560271 0)
(-0.00932723 0.000539184 0)
(-0.00961453 0.000517359 0)
(-0.00988968 0.000494829 0)
(-0.0101523 0.000471624 0)
(-0.010402 0.000447773 0)
(-0.0106385 0.0004233 0)
(-0.0108614 0.000398227 0)
(-0.0110703 0.000372574 0)
(-0.0112651 0.00034636 0)
(-0.0114454 0.000319607 0)
(-0.0116109 0.000292335 0)
(-0.0117613 0.000264567 0)
(-0.0118964 0.000236323 0)
(-0.0120159 0.000207626 0)
(-0.0121196 0.0001785 0)
(-0.0122073 0.000148971 0)
(-0.0122788 0.000119067 0)
(-0.0123339 8.88164e-05 0)
(-0.0123724 5.82477e-05 0)
(-0.0123942 2.73923e-05 0)
(-0.0123991 -3.71689e-06 0)
(-0.012387 -3.50451e-05 0)
(-0.0123578 -6.65558e-05 0)
(-0.0123115 -9.82108e-05 0)
(-0.0122479 -0.00012997 0)
(-0.0121671 -0.000161791 0)
(-0.0120691 -0.00019363 0)
(-0.0119537 -0.000225442 0)
(-0.0118212 -0.000257179 0)
(-0.0116715 -0.000288792 0)
(-0.0115048 -0.000320228 0)
(-0.0113211 -0.000351433 0)
(-0.0111206 -0.000382351 0)
(-0.0109035 -0.00041292 0)
(-0.01067 -0.000443077 0)
(-0.0104204 -0.000472755 0)
(-0.010155 -0.00050188 0)
(-0.009874 -0.000530369 0)
(-0.0095779 -0.000558134 0)
(-0.00926709 -0.000585076 0)
(-0.00894208 -0.000611082 0)
(-0.00860341 -0.000636026 0)
(-0.00825173 -0.000659766 0)
(-0.00788773 -0.000682138 0)
(-0.00751224 -0.000702956 0)
(-0.00712616 -0.000722005 0)
(-0.00673054 -0.000739042 0)
(-0.00632654 -0.000753789 0)
(-0.00591551 -0.000765932 0)
(-0.00549895 -0.000775117 0)
(-0.00507855 -0.000780948 0)
(-0.00465623 -0.000782988 0)
(-0.00423412 -0.000780758 0)
(-0.00381462 -0.000773741 0)
(-0.00340037 -0.000761385 0)
(-0.00299429 -0.000743116 0)
(-0.00259955 -0.000718351 0)
(-0.00221959 -0.000686518 0)
(-0.00185807 -0.000647088 0)
(-0.00151884 -0.000599624 0)
(-0.00120584 -0.000543847 0)
(-0.000923008 -0.000479744 0)
(-0.00067408 -0.000407722 0)
(-0.000462377 -0.00032886 0)
(-0.00029047 -0.000245292 0)
(-0.000159694 -0.000160795 0)
(-6.95408e-05 -8.15934e-05 0)
(-1.77527e-05 -1.76401e-05 0)
(-5.33223e-07 1.40063e-05 0)
(-3.77621e-06 -5.61435e-08 0)
(-3.37467e-05 5.87764e-05 0)
(-0.000108967 0.000155248 0)
(-0.000228587 0.000270056 0)
(-0.000393028 0.00039095 0)
(-0.000602075 0.000510064 0)
(-0.000853919 0.000622408 0)
(-0.00114562 0.000725034 0)
(-0.00147357 0.0008164 0)
(-0.00183378 0.000895919 0)
(-0.00222208 0.00096362 0)
(-0.00263429 0.00101993 0)
(-0.00306634 0.00106552 0)
(-0.00351438 0.00110121 0)
(-0.00397482 0.0011279 0)
(-0.00444437 0.00114647 0)
(-0.00492003 0.00115783 0)
(-0.0053991 0.00116279 0)
(-0.00587917 0.00116213 0)
(-0.0063581 0.00115654 0)
(-0.00683399 0.00114665 0)
(-0.00730519 0.00113301 0)
(-0.00777022 0.0011161 0)
(-0.0082278 0.00109633 0)
(-0.00867677 0.00107405 0)
(-0.00911613 0.00104954 0)
(-0.00954498 0.00102305 0)
(-0.00996251 0.000994787 0)
(-0.010368 0.000964908 0)
(-0.0107607 0.00093355 0)
(-0.0111402 0.000900823 0)
(-0.0115057 0.000866816 0)
(-0.0118568 0.000831603 0)
(-0.012193 0.000795246 0)
(-0.0125138 0.000757797 0)
(-0.0128187 0.000719302 0)
(-0.0131074 0.000679803 0)
(-0.0133793 0.000639337 0)
(-0.0136342 0.000597939 0)
(-0.0138717 0.000555644 0)
(-0.0140913 0.000512486 0)
(-0.0142928 0.000468501 0)
(-0.0144758 0.000423724 0)
(-0.0146401 0.000378192 0)
(-0.0147852 0.000331944 0)
(-0.0149109 0.000285017 0)
(-0.0150171 0.000237455 0)
(-0.0151033 0.000189302 0)
(-0.0151695 0.000140605 0)
(-0.0152154 9.14119e-05 0)
(-0.0152408 4.17739e-05 0)
(-0.0152456 -8.25645e-06 0)
(-0.0152296 -5.86232e-05 0)
(-0.0151927 -0.000109267 0)
(-0.0151349 -0.000160127 0)
(-0.015056 -0.000211137 0)
(-0.0149561 -0.000262231 0)
(-0.0148351 -0.00031334 0)
(-0.0146931 -0.000364389 0)
(-0.0145301 -0.000415305 0)
(-0.0143462 -0.000466005 0)
(-0.0141415 -0.000516408 0)
(-0.0139161 -0.000566426 0)
(-0.0136704 -0.000615966 0)
(-0.0134044 -0.000664934 0)
(-0.0131185 -0.000713225 0)
(-0.0128129 -0.000760729 0)
(-0.0124881 -0.000807326 0)
(-0.0121445 -0.000852883 0)
(-0.0117825 -0.000897258 0)
(-0.0114026 -0.000940287 0)
(-0.0110056 -0.000981791 0)
(-0.010592 -0.00102157 0)
(-0.0101627 -0.00105938 0)
(-0.00971853 -0.00109497 0)
(-0.00926049 -0.00112804 0)
(-0.00878971 -0.00115825 0)
(-0.00830746 -0.0011852 0)
(-0.00781519 -0.00120847 0)
(-0.00731451 -0.00122754 0)
(-0.00680725 -0.00124188 0)
(-0.00629546 -0.00125085 0)
(-0.00578144 -0.00125379 0)
(-0.00526776 -0.00124996 0)
(-0.00475725 -0.00123856 0)
(-0.00425305 -0.00121876 0)
(-0.00375859 -0.00118971 0)
(-0.00327758 -0.00115055 0)
(-0.00281401 -0.00110046 0)
(-0.00237209 -0.0010387 0)
(-0.00195622 -0.00096471 0)
(-0.00157086 -0.000878183 0)
(-0.00122042 -0.00077923 0)
(-0.000909092 -0.000668602 0)
(-0.000640603 -0.000547994 0)
(-0.000417949 -0.000420517 0)
(-0.000242944 -0.000291356 0)
(-0.000115742 -0.000168595 0)
(-3.59513e-05 -6.44664e-05 0)
(-3.94828e-06 1.3137e-06 0)
(-6.70455e-06 2.06866e-05 0)
(-5.04922e-05 0.000124665 0)
(-0.000152477 0.000268371 0)
(-0.000307629 0.000431489 0)
(-0.000514068 0.000600406 0)
(-0.000770609 0.000765935 0)
(-0.00107476 0.000922021 0)
(-0.00142306 0.00106493 0)
(-0.00181145 0.00119259 0)
(-0.00223556 0.00130411 0)
(-0.00269084 0.00139942 0)
(-0.00317274 0.00147902 0)
(-0.00367681 0.00154373 0)
(-0.00419881 0.0015946 0)
(-0.00473475 0.00163281 0)
(-0.00528096 0.00165955 0)
(-0.00583408 0.00167602 0)
(-0.00639106 0.00168336 0)
(-0.00694917 0.00168263 0)
(-0.00750596 0.0016748 0)
(-0.00805924 0.00166075 0)
(-0.00860712 0.00164124 0)
(-0.00914787 0.00161696 0)
(-0.00967999 0.0015885 0)
(-0.0102021 0.00155634 0)
(-0.0107131 0.00152092 0)
(-0.0112119 0.00148258 0)
(-0.0116975 0.00144163 0)
(-0.0121691 0.00139829 0)
(-0.0126258 0.00135277 0)
(-0.0130671 0.00130524 0)
(-0.013492 0.00125583 0)
(-0.0139002 0.00120465 0)
(-0.0142909 0.0011518 0)
(-0.0146636 0.00109735 0)
(-0.0150179 0.00104138 0)
(-0.0153531 0.000983954 0)
(-0.0156688 0.000925122 0)
(-0.0159646 0.000864943 0)
(-0.01624 0.000803468 0)
(-0.0164947 0.000740749 0)
(-0.0167281 0.000676841 0)
(-0.01694 0.000611795 0)
(-0.01713 0.000545668 0)
(-0.0172977 0.000478515 0)
(-0.0174428 0.000410396 0)
(-0.0175651 0.000341373 0)
(-0.0176642 0.000271511 0)
(-0.01774 0.000200878 0)
(-0.0177921 0.000129544 0)
(-0.0178204 5.75857e-05 0)
(-0.0178246 -1.49213e-05 0)
(-0.0178048 -8.78952e-05 0)
(-0.0177607 -0.00016125 0)
(-0.0176922 -0.000234898 0)
(-0.0175993 -0.000308744 0)
(-0.0174819 -0.000382692 0)
(-0.01734 -0.000456641 0)
(-0.0171738 -0.000530486 0)
(-0.0169832 -0.000604117 0)
(-0.0167683 -0.00067742 0)
(-0.0165294 -0.000750272 0)
(-0.0162665 -0.000822549 0)
(-0.01598 -0.000894117 0)
(-0.01567 -0.000964835 0)
(-0.015337 -0.00103455 0)
(-0.0149812 -0.00110311 0)
(-0.0146032 -0.00117033 0)
(-0.0142034 -0.00123603 0)
(-0.0137824 -0.00129998 0)
(-0.0133408 -0.00136197 0)
(-0.0128793 -0.00142171 0)
(-0.0123988 -0.00147893 0)
(-0.0119002 -0.00153327 0)
(-0.0113844 -0.00158437 0)
(-0.0108527 -0.0016318 0)
(-0.0103064 -0.00167505 0)
(-0.00974696 -0.00171358 0)
(-0.00917602 -0.00174677 0)
(-0.00859548 -0.0017739 0)
(-0.00800743 -0.00179419 0)
(-0.00741423 -0.00180678 0)
(-0.00681849 -0.00181072 0)
(-0.00622315 -0.00180499 0)
(-0.00563139 -0.00178849 0)
(-0.00504676 -0.00176009 0)
(-0.00447309 -0.00171864 0)
(-0.00391451 -0.00166299 0)
(-0.00337545 -0.00159206 0)
(-0.00286053 -0.00150494 0)
(-0.00237457 -0.00140092 0)
(-0.00192244 -0.00127971 0)
(-0.00150895 -0.00114157 0)
(-0.00113867 -0.000987594 0)
(-0.000815782 -0.000820063 0)
(-0.000543802 -0.000642952 0)
(-0.000325238 -0.000462593 0)
(-0.000161213 -0.000288456 0)
(-5.35649e-05 -0.000134254 0)
(-7.12016e-06 -2.09563e-05 0)
(-9.38517e-06 4.99733e-05 0)
(-6.61716e-05 0.000211727 0)
(-0.000193795 0.000412247 0)
(-0.000383162 0.000631103 0)
(-0.000630099 0.000853972 0)
(-0.000932248 0.00107082 0)
(-0.00128626 0.00127484 0)
(-0.00168805 0.00146169 0)
(-0.0021331 0.00162889 0)
(-0.00261662 0.00177529 0)
(-0.00313372 0.00190076 0)
(-0.00367952 0.00200584 0)
(-0.00424927 0.00209152 0)
(-0.00483841 0.00215908 0)
(-0.00544266 0.00220998 0)
(-0.00605804 0.00224574 0)
(-0.00668089 0.00226785 0)
(-0.00730789 0.00227779 0)
(-0.00793603 0.00227693 0)
(-0.00856263 0.00226652 0)
(-0.00918526 0.00224772 0)
(-0.0098018 0.00222154 0)
(-0.0104103 0.00218888 0)
(-0.0110092 0.00215051 0)
(-0.0115968 0.00210711 0)
(-0.0121718 0.00205923 0)
(-0.0127332 0.00200736 0)
(-0.0132796 0.00195189 0)
(-0.0138103 0.00189315 0)
(-0.0143242 0.00183143 0)
(-0.0148206 0.00176694 0)
(-0.0152987 0.00169988 0)
(-0.0157578 0.0016304 0)
(-0.0161972 0.00155863 0)
(-0.0166162 0.0014847 0)
(-0.0170144 0.00140869 0)
(-0.0173911 0.00133071 0)
(-0.0177458 0.00125082 0)
(-0.018078 0.00116912 0)
(-0.0183872 0.00108566 0)
(-0.0186729 0.00100053 0)
(-0.0189347 0.000913802 0)
(-0.0191721 0.000825547 0)
(-0.0193849 0.000735842 0)
(-0.0195725 0.000644765 0)
(-0.0197347 0.000552399 0)
(-0.0198711 0.000458829 0)
(-0.0199814 0.000364145 0)
(-0.0200654 0.000268439 0)
(-0.0201228 0.000171807 0)
(-0.0201534 7.43515e-05 0)
(-0.0201569 -2.38223e-05 0)
(-0.0201333 -0.000122604 0)
(-0.0200824 -0.000221877 0)
(-0.0200041 -0.000321522 0)
(-0.0198983 -0.000421412 0)
(-0.0197651 -0.000521417 0)
(-0.0196044 -0.000621401 0)
(-0.0194162 -0.000721221 0)
(-0.0192007 -0.000820728 0)
(-0.018958 -0.000919768 0)
(-0.0186882 -0.00101818 0)
(-0.0183916 -0.00111579 0)
(-0.0180685 -0.00121241 0)
(-0.0177191 -0.00130787 0)
(-0.0173438 -0.00140195 0)
(-0.0169431 -0.00149443 0)
(-0.0165174 -0.00158508 0)
(-0.0160673 -0.00167363 0)
(-0.0155936 -0.0017598 0)
(-0.0150967 -0.00184327 0)
(-0.0145777 -0.00192369 0)
(-0.0140374 -0.00200064 0)
(-0.0134769 -0.00207369 0)
(-0.0128973 -0.00214232 0)
(-0.0122999 -0.00220595 0)
(-0.0116862 -0.00226393 0)
(-0.0110579 -0.00231551 0)
(-0.0104168 -0.00235986 0)
(-0.00976508 -0.00239604 0)
(-0.00910499 -0.00242303 0)
(-0.00843915 -0.00243969 0)
(-0.00777046 -0.00244478 0)
(-0.00710213 -0.00243697 0)
(-0.00643765 -0.00241486 0)
(-0.00578088 -0.00237699 0)
(-0.00513598 -0.00232189 0)
(-0.00450742 -0.00224813 0)
(-0.00389994 -0.00215439 0)
(-0.00331854 -0.00203953 0)
(-0.00276834 -0.00190276 0)
(-0.00225457 -0.00174378 0)
(-0.00178239 -0.00156297 0)
(-0.00135679 -0.00136174 0)
(-0.0009824 -0.00114287 0)
(-0.000663404 -0.000911014 0)
(-0.000403144 -0.000673324 0)
(-0.00020389 -0.000440167 0)
(-6.9792e-05 -0.00022603 0)
(-9.92561e-06 -5.20915e-05 0)
(-1.1766e-05 8.70598e-05 0)
(-8.0446e-05 0.00031858 0)
(-0.000231926 0.000585241 0)
(-0.000453424 0.000867028 0)
(-0.000738577 0.00114949 0)
(-0.0010838 0.00142219 0)
(-0.00148481 0.00167786 0)
(-0.00193678 0.00191177 0)
(-0.00243469 0.00212117 0)
(-0.00297334 0.00230476 0)
(-0.00354748 0.00246236 0)
(-0.00415195 0.0025946 0)
(-0.0047817 0.00270264 0)
(-0.00543193 0.00278801 0)
(-0.00609811 0.00285245 0)
(-0.006776 0.0028978 0)
(-0.00746174 0.00292589 0)
(-0.00815175 0.00293852 0)
(-0.00884283 0.00293738 0)
(-0.00953207 0.00292404 0)
(-0.0102169 0.00289992 0)
(-0.0108949 0.00286631 0)
(-0.0115641 0.00282432 0)
(-0.0122226 0.00277495 0)
(-0.0128688 0.00271904 0)
(-0.0135012 0.00265731 0)
(-0.0141184 0.00259038 0)
(-0.0147193 0.00251876 0)
(-0.0153027 0.00244288 0)
(-0.0158677 0.0023631 0)
(-0.0164134 0.00227972 0)
(-0.0169388 0.00219299 0)
(-0.0174433 0.00210311 0)
(-0.0179261 0.00201026 0)
(-0.0183865 0.0019146 0)
(-0.0188238 0.00181626 0)
(-0.0192375 0.00171536 0)
(-0.0196268 0.001612 0)
(-0.0199914 0.0015063 0)
(-0.0203306 0.00139835 0)
(-0.0206439 0.00128825 0)
(-0.0209308 0.0011761 0)
(-0.0211909 0.001062 0)
(-0.0214238 0.000946048 0)
(-0.0216291 0.000828344 0)
(-0.0218063 0.000708998 0)
(-0.0219551 0.000588123 0)
(-0.0220753 0.000465835 0)
(-0.0221664 0.000342252 0)
(-0.0222283 0.000217502 0)
(-0.0222607 9.17158e-05 0)
(-0.0222634 -3.49701e-05 0)
(-0.0222362 -0.000162412 0)
(-0.022179 -0.000290462 0)
(-0.0220918 -0.000418963 0)
(-0.0219743 -0.000547754 0)
(-0.0218267 -0.000676667 0)
(-0.0216489 -0.000805526 0)
(-0.021441 -0.000934149 0)
(-0.0212031 -0.00106234 0)
(-0.0209354 -0.00118991 0)
(-0.0206379 -0.00131663 0)
(-0.0203111 -0.0014423 0)
(-0.0199551 -0.00156668 0)
(-0.0195704 -0.00168951 0)
(-0.0191573 -0.00181055 0)
(-0.0187163 -0.0019295 0)
(-0.018248 -0.00204605 0)
(-0.017753 -0.00215987 0)
(-0.0172321 -0.00227059 0)
(-0.0166859 -0.00237779 0)
(-0.0161155 -0.00248102 0)
(-0.0155218 -0.00257976 0)
(-0.014906 -0.00267343 0)
(-0.0142694 -0.00276138 0)
(-0.0136134 -0.00284286 0)
(-0.0129396 -0.00291703 0)
(-0.0122498 -0.00298296 0)
(-0.0115461 -0.00303959 0)
(-0.0108308 -0.00308575 0)
(-0.0101063 -0.00312013 0)
(-0.00937553 -0.00314132 0)
(-0.00864155 -0.00314776 0)
(-0.00790779 -0.00313782 0)
(-0.00717802 -0.00310976 0)
(-0.00645635 -0.00306179 0)
(-0.00574718 -0.00299213 0)
(-0.00505526 -0.00289906 0)
(-0.00438562 -0.00278098 0)
(-0.00374351 -0.00263658 0)
(-0.00313437 -0.00246493 0)
(-0.00256373 -0.0022657 0)
(-0.00203712 -0.00203938 0)
(-0.00155993 -0.0017876 0)
(-0.00113734 -0.00151349 0)
(-0.000774245 -0.00122217 0)
(-0.000474913 -0.000921321 0)
(-0.000242822 -0.000621745 0)
(-8.43347e-05 -0.000338134 0)
(-1.23471e-05 -9.11846e-05 0)
(-1.38346e-05 0.000131099 0)
(-9.32117e-05 0.000443534 0)
(-0.000266489 0.000785181 0)
(-0.000517637 0.00113683 0)
(-0.000838272 0.00148429 0)
(-0.00122364 0.00181711 0)
(-0.00166847 0.00212785 0)
(-0.0021672 0.00241159 0)
(-0.00271421 0.00266546 0)
(-0.00330389 0.00288811 0)
(-0.00393063 0.0030794 0)
(-0.00458897 0.00324009 0)
(-0.0052736 0.00337153 0)
(-0.00597951 0.00347551 0)
(-0.00670194 0.00355408 0)
(-0.00743647 0.00360939 0)
(-0.00817902 0.00364362 0)
(-0.00892586 0.00365891 0)
(-0.00967359 0.00365727 0)
(-0.0104191 0.00364059 0)
(-0.0111598 0.00361058 0)
(-0.011893 0.0035688 0)
(-0.0126165 0.00351662 0)
(-0.0133285 0.00345522 0)
(-0.0140271 0.00338566 0)
(-0.0147107 0.00330881 0)
(-0.0153779 0.00322544 0)
(-0.0160274 0.00313619 0)
(-0.016658 0.0030416 0)
(-0.0172686 0.0029421 0)
(-0.0178582 0.00283808 0)
(-0.018426 0.00272986 0)
(-0.0189711 0.00261769 0)
(-0.0194926 0.00250181 0)
(-0.0199898 0.00238241 0)
(-0.020462 0.00225967 0)
(-0.0209086 0.00213373 0)
(-0.0213288 0.00200474 0)
(-0.0217222 0.00187283 0)
(-0.022088 0.00173814 0)
(-0.0224259 0.00160078 0)
(-0.0227352 0.00146088 0)
(-0.0230154 0.00131857 0)
(-0.0232662 0.00117398 0)
(-0.023487 0.00102723 0)
(-0.0236775 0.000878462 0)
(-0.0238374 0.000727816 0)
(-0.0239661 0.000575437 0)
(-0.0240635 0.000421476 0)
(-0.0241293 0.000266091 0)
(-0.0241632 0.000109445 0)
(-0.024165 -4.82904e-05 0)
(-0.0241345 -0.000206937 0)
(-0.0240717 -0.00036631 0)
(-0.0239763 -0.000526216 0)
(-0.0238483 -0.000686453 0)
(-0.0236877 -0.000846814 0)
(-0.0234946 -0.00100708 0)
(-0.023269 -0.00116702 0)
(-0.023011 -0.0013264 0)
(-0.0227208 -0.00148497 0)
(-0.0223985 -0.00164247 0)
(-0.0220446 -0.00179862 0)
(-0.0216592 -0.00195314 0)
(-0.0212428 -0.00210571 0)
(-0.0207959 -0.00225601 0)
(-0.0203189 -0.00240369 0)
(-0.0198125 -0.00254835 0)
(-0.0192774 -0.00268958 0)
(-0.0187142 -0.00282692 0)
(-0.018124 -0.00295985 0)
(-0.0175076 -0.0030878 0)
(-0.0168662 -0.00321013 0)
(-0.016201 -0.00332613 0)
(-0.0155134 -0.00343499 0)
(-0.014805 -0.00353578 0)
(-0.0140774 -0.00362749 0)
(-0.0133327 -0.00370895 0)
(-0.012573 -0.00377889 0)
(-0.0118007 -0.00383587 0)
(-0.0110186 -0.0038783 0)
(-0.0102295 -0.00390448 0)
(-0.00943688 -0.00391255 0)
(-0.00864428 -0.00390052 0)
(-0.00785568 -0.00386634 0)
(-0.00707538 -0.00380787 0)
(-0.00630801 -0.00372301 0)
(-0.00555855 -0.00360973 0)
(-0.00483226 -0.00346618 0)
(-0.00413463 -0.00329082 0)
(-0.00347139 -0.00308257 0)
(-0.00284836 -0.00284106 0)
(-0.00227143 -0.00256679 0)
(-0.00174645 -0.00226153 0)
(-0.00127917 -0.00192861 0)
(-0.000875229 -0.0015734 0)
(-0.000539855 -0.0012038 0)
(-0.000277705 -0.000830718 0)
(-9.7156e-05 -0.000468612 0)
(-1.4411e-05 -0.000137289 0)
(-1.5605e-05 0.000181275 0)
(-0.00010449 0.000584784 0)
(-0.000297444 0.00100968 0)
(-0.000575613 0.00143777 0)
(-0.000928819 0.00185542 0)
(-0.0013512 0.00225242 0)
(-0.00183657 0.00262142 0)
(-0.00237858 0.00295753 0)
(-0.00297102 0.00325787 0)
(-0.00360781 0.00352119 0)
(-0.004283 0.00374745 0)
(-0.00499081 0.00393759 0)
(-0.00572571 0.0040932 0)
(-0.00648245 0.00421636 0)
(-0.0072561 0.00430943 0)
(-0.00804206 0.00437489 0)
(-0.00883608 0.00441529 0)
(-0.00963428 0.0044331 0)
(-0.0104331 0.00443067 0)
(-0.0112294 0.00441022 0)
(-0.0120202 0.00437375 0)
(-0.012803 0.0043231 0)
(-0.0135754 0.00425988 0)
(-0.0143353 0.00418551 0)
(-0.0150809 0.00410124 0)
(-0.0158104 0.00400811 0)
(-0.0165224 0.00390706 0)
(-0.0172154 0.00379884 0)
(-0.0178882 0.0036841 0)
(-0.0185396 0.00356339 0)
(-0.0191686 0.00343716 0)
(-0.0197742 0.00330581 0)
(-0.0203555 0.00316966 0)
(-0.0209116 0.00302899 0)
(-0.0214417 0.00288405 0)
(-0.0219451 0.00273504 0)
(-0.022421 0.00258217 0)
(-0.0228689 0.0024256 0)
(-0.0232879 0.00226551 0)
(-0.0236776 0.00210205 0)
(-0.0240373 0.00193538 0)
(-0.0243665 0.00176566 0)
(-0.0246647 0.00159303 0)
(-0.0249314 0.00141765 0)
(-0.0251661 0.0012397 0)
(-0.0253685 0.00105932 0)
(-0.025538 0.000876705 0)
(-0.0256744 0.000692016 0)
(-0.0257774 0.000505442 0)
(-0.0258466 0.000317175 0)
(-0.0258818 0.000127413 0)
(-0.0258827 -6.36366e-05 0)
(-0.0258493 -0.000255758 0)
(-0.0257812 -0.000448727 0)
(-0.0256785 -0.000642311 0)
(-0.0255411 -0.000836265 0)
(-0.025369 -0.00103034 0)
(-0.0251621 -0.00122426 0)
(-0.0249206 -0.00141777 0)
(-0.0246446 -0.00161057 0)
(-0.0243343 -0.00180235 0)
(-0.0239899 -0.00199281 0)
(-0.0236117 -0.00218162 0)
(-0.0232 -0.00236841 0)
(-0.0227553 -0.00255282 0)
(-0.0222781 -0.00273445 0)
(-0.0217689 -0.00291287 0)
(-0.0212284 -0.00308761 0)
(-0.0206572 -0.00325817 0)
(-0.0200564 -0.00342398 0)
(-0.0194266 -0.00358442 0)
(-0.0187691 -0.0037388 0)
(-0.0180849 -0.00388636 0)
(-0.0173755 -0.00402622 0)
(-0.0166422 -0.00415742 0)
(-0.0158868 -0.00427886 0)
(-0.015111 -0.00438931 0)
(-0.014317 -0.0044874 0)
(-0.0135069 -0.00457159 0)
(-0.0126835 -0.00464019 0)
(-0.0118494 -0.00469134 0)
(-0.0110079 -0.004723 0)
(-0.0101624 -0.00473301 0)
(-0.00931661 -0.00471904 0)
(-0.00847475 -0.00467869 0)
(-0.00764127 -0.00460948 0)
(-0.006821 -0.00450898 0)
(-0.00601909 -0.00437484 0)
(-0.00524102 -0.00420493 0)
(-0.00449253 -0.00399748 0)
(-0.00377958 -0.00375122 0)
(-0.00310834 -0.00346567 0)
(-0.00248504 -0.00314129 0)
(-0.00191601 -0.00277985 0)
(-0.00140759 -0.00238476 0)
(-0.00096618 -0.00196144 0)
(-0.000597933 -0.00151776 0)
(-0.000308607 -0.00106445 0)
(-0.000108349 -0.000615461 0)
(-1.61588e-05 -0.0001895 0)
(-1.71221e-05 0.000236832 0)
(-0.000114395 0.000740578 0)
(-0.000324949 0.00125633 0)
(-0.000627535 0.00176706 0)
(-0.00101041 0.00225984 0)
(-0.00146668 0.0027249 0)
(-0.0019893 0.0031552 0)
(-0.00257117 0.00354604 0)
(-0.00320549 0.0038947 0)
(-0.00388571 0.00420009 0)
(-0.00460549 0.00446241 0)
(-0.00535877 0.00468281 0)
(-0.00613976 0.00486318 0)
(-0.00694301 0.00500591 0)
(-0.00776341 0.00511369 0)
(-0.0085962 0.00518938 0)
(-0.009437 0.00523586 0)
(-0.0102818 0.00525596 0)
(-0.0111269 0.0052524 0)
(-0.0119691 0.00522771 0)
(-0.0128052 0.0051842 0)
(-0.0136327 0.00512399 0)
(-0.0144491 0.00504894 0)
(-0.0152521 0.00496072 0)
(-0.0160399 0.00486075 0)
(-0.0168107 0.00475029 0)
(-0.0175629 0.0046304 0)
(-0.0182949 0.00450199 0)
(-0.0190056 0.00436581 0)
(-0.0196936 0.00422253 0)
(-0.0203579 0.00407268 0)
(-0.0209974 0.00391673 0)
(-0.0216112 0.00375508 0)
(-0.0221983 0.00358805 0)
(-0.0227579 0.00341594 0)
(-0.0232892 0.00323901 0)
(-0.0237915 0.00305749 0)
(-0.024264 0.00287161 0)
(-0.0247061 0.00268155 0)
(-0.0251171 0.00248752 0)
(-0.0254964 0.00228971 0)
(-0.0258434 0.00208829 0)
(-0.0261577 0.00188345 0)
(-0.0264386 0.00167539 0)
(-0.0266858 0.00146429 0)
(-0.0268988 0.00125036 0)
(-0.0270771 0.0010338 0)
(-0.0272204 0.00081482 0)
(-0.0273283 0.000593637 0)
(-0.0274006 0.000370481 0)
(-0.027437 0.000145586 0)
(-0.0274372 -8.08013e-05 0)
(-0.0274011 -0.000308426 0)
(-0.0273285 -0.000537022 0)
(-0.0272193 -0.000766315 0)