/*--------------------------------*- C++ -*----------------------------------*\
| =========                 |                                                 |
| \\      /  F ield         | OpenFOAM: The Open Source CFD Toolbox           |
|  \\    /   O peration     | Version:  2512                                  |
|   \\  /    A nd           | Website:  www.openfoam.com                      |
|    \\/     M anipulation  |                                                 |
\*---------------------------------------------------------------------------*/
FoamFile
{
    version     2.0;
    format      ascii;
    arch        "LSB;label=32;scalar=64";
    class       volScalarField;
    location    "0.02";
    object      p;
}
// * * * * * * * * * * * * * * * * * * * * * * * * * * * * * * * * * * * * * //

dimensions      [0 2 -2 0 0 0 0];

internalField   nonuniform List<scalar> 
10000
(
-1.25947e-08
-0.00021103
-0.000525232
-0.000827301
-0.00107204
-0.001273
-0.00143535
-0.00156256
-0.00165706
-0.00172058
-0.00175471
-0.00176105
-0.00174111
-0.0016961
-0.00162702
-0.00153473
-0.00142008
-0.00128386
-0.00112684
-0.000949663
-0.00075293
-0.000537195
-0.000303032
-5.10137e-05
0.000218329
0.000504517
0.00080708
0.00112551
0.00145929
0.00180787
0.00217076
0.00254743
0.00293731
0.00333979
0.00375428
0.00418018
0.00461687
0.00506373
0.00552012
0.00598537
0.00645885
0.00693991
0.00742789
0.00792213
0.00842193
0.00892659
0.00943543
0.00994777
0.0104629
0.0109802
0.0114989
0.0120182
0.0125375
0.0130562
0.0135734
0.0140886
0.0146009
0.0151099
0.0156146
0.0161145
0.0166089
0.0170971
0.0175785
0.0180524
0.0185181
0.0189751
0.0194225
0.0198598
0.0202865
0.0207018
0.0211053
0.0214962
0.0218739
0.022238
0.0225878
0.0229228
0.0232424
0.0235461
0.0238334
0.0241037
0.0243565
0.0245912
0.0248073
0.0250044
0.0251818
0.0253392
0.025476
0.0255917
0.0256858
0.0257578
0.0258073
0.0258342
0.0258388
0.0258219
0.0257852
0.0257321
0.0256678
0.025601
0.0255447
0.0255135
-0.000150827
-0.000347263
-0.000594613
-0.000832653
-0.00103911
-0.00121292
-0.00135522
-0.00146758
-0.00155125
-0.00160723
-0.00163638
-0.00163957
-0.00161779
-0.00157195
-0.00150286
-0.00141121
-0.00129766
-0.0011629
-0.00100759
-0.000832371
-0.000637809
-0.000424433
-0.000192801
5.65311e-05
0.000323053
0.00060629
0.000905765
0.00122098
0.00155142
0.00189657
0.00225594
0.00262898
0.00301513
0.00341378
0.00382435
0.00424625
0.00467888
0.0051216
0.00557376
0.00603473
0.00650385
0.00698051
0.00746404
0.00795377
0.00844901
0.00894906
0.00945325
0.00996093
0.0104714
0.010984
0.0114979
0.0120125
0.0125271
0.013041
0.0135536
0.0140641
0.0145718
0.0150761
0.0155763
0.0160716
0.0165615
0.0170453
0.0175223
0.0179919
0.0184533
0.018906
0.0193492
0.0197825
0.020205
0.0206164
0.0210159
0.021403
0.021777
0.0221374
0.0224837
0.0228152
0.0231315
0.0234321
0.0237163
0.0239837
0.0242338
0.024466
0.0246798
0.0248748
0.0250506
0.0252067
0.0253427
0.0254582
0.025553
0.0256268
0.0256797
0.0257117
0.0257236
0.0257165
0.0256925
0.0256547
0.0256077
0.025558
0.0255134
0.0254822
-0.000354854
-0.000507648
-0.000687735
-0.000872199
-0.00104276
-0.00119155
-0.00131568
-0.00141437
-0.00148775
-0.00153616
-0.00155989
-0.00155933
-0.00153499
-0.00148749
-0.00141749
-0.00132555
-0.00121219
-0.00107798
-0.000923521
-0.00074939
-0.000556122
-0.000344244
-0.000114288
0.000133225
0.000397809
0.000678998
0.000976303
0.00128922
0.00161726
0.00195995
0.00231677
0.00268718
0.00307061
0.00346646
0.00387418
0.00429317
0.00472284
0.00516253
0.0056116
0.00606943
0.00653538
0.00700882
0.0074891
0.00797552
0.00846741
0.00896408
0.00946488
0.00996914
0.0104762
0.0109853
0.0114958
0.012007
0.0125182
0.0130287
0.0135379
0.014045
0.0145495
0.0150505
0.0155474
0.0160396
0.0165264
0.0170071
0.017481
0.0179475
0.018406
0.0188557
0.019296
0.0197263
0.020146
0.0205545
0.0209511
0.0213354
0.0217067
0.0220644
0.022408
0.022737
0.0230508
0.0233491
0.0236311
0.0238965
0.0241447
0.0243751
0.0245874
0.0247812
0.0249559
0.0251114
0.0252471
0.0253629
0.0254586
0.0255341
0.0255895
0.0256253
0.0256421
0.0256414
0.0256249
0.0255954
0.0255566
0.0255133
0.0254686
0.0254255
-0.000524603
-0.000647331
-0.00078701
-0.000932871
-0.00107361
-0.00120022
-0.00130773
-0.00139379
-0.00145739
-0.00149819
-0.00151612
-0.00151126
-0.00148376
-0.00143398
-0.00136236
-0.00126936
-0.00115543
-0.00102106
-0.000866752
-0.000693008
-0.000500338
-0.000289271
-6.03161e-05
0.000186057
0.000449395
0.000729227
0.00102506
0.0013364
0.00166278
0.00200374
0.00235876
0.0027273
0.00310879
0.00350265
0.00390832
0.00432524
0.00475278
0.0051903
0.00563715
0.00609273
0.00655642
0.00702757
0.0075055
0.00798954
0.008479
0.00897324
0.00947159
0.00997339
0.010478
0.0109846
0.0114927
0.0120014
0.0125102
0.0130183
0.0135252
0.01403
0.0145322
0.015031
0.0155258
0.0160158
0.0165005
0.0169791
0.017451
0.0179155
0.018372
0.0188196
0.0192579
0.0196862
0.0201039
0.0205104
0.0209051
0.0212873
0.0216566
0.0220124
0.022354
0.0226812
0.0229933
0.0232898
0.0235703
0.0238342
0.0240811
0.0243104
0.0245218
0.0247148
0.0248891
0.0250443
0.0251801
0.0252964
0.025393
0.0254699
0.0255273
0.0255657
0.0255857
0.0255886
0.025576
0.02555
0.0255135
0.0254699
0.0254185
0.0253582
-0.000640553
-0.000759006
-0.00087964
-0.00100114
-0.00111964
-0.00122766
-0.00132023
-0.00139448
-0.0014487
-0.00148198
-0.00149391
-0.00148433
-0.00145323
-0.00140071
-0.00132701
-0.00123245
-0.00111745
-0.000982413
-0.000827763
-0.000653937
-0.000461421
-0.000250715
-2.22918e-05
0.000223408
0.00048595
0.000764868
0.00105967
0.00136991
0.00169512
0.00203483
0.00238854
0.00275569
0.00313573
0.00352812
0.00393229
0.00434767
0.00477362
0.00520951
0.00565472
0.00610865
0.00657065
0.00704008
0.00751626
0.0079985
0.00848616
0.00897857
0.0094751
0.00997507
0.0104778
0.0109826
0.0114889
0.0119958
0.0125028
0.0130093
0.0135144
0.0140177
0.0145182
0.0150155
0.0155087
0.0159972
0.0164805
0.0169577
0.0174282
0.0178912
0.0183462
0.0187925
0.0192294
0.0196562
0.0200725
0.0204775
0.0208707
0.0212515
0.0216193
0.0219736
0.0223138
0.0226396
0.0229504
0.0232456
0.023525
0.0237878
0.0240337
0.0242622
0.024473
0.0246655
0.0248395
0.0249948
0.0251309
0.0252477
0.0253451
0.0254232
0.0254821
0.0255223
0.0255445
0.0255496
0.0255389
0.0255141
0.0254773
0.0254308
0.0253708
0.025293
-0.000732745
-0.000854227
-0.000966673
-0.00107381
-0.00117704
-0.00127082
-0.0013509
-0.00141465
-0.00146022
-0.00148638
-0.00149244
-0.00147806
-0.00144308
-0.00138748
-0.00131134
-0.00121487
-0.0010984
-0.000962263
-0.000806829
-0.000632497
-0.00043972
-0.000228949
-6.08992e-07
0.00024488
0.00050708
0.00078553
0.00107977
0.00138938
0.00171391
0.00205288
0.00240577
0.00277204
0.00315118
0.00354264
0.00394587
0.00436026
0.0047852
0.00522005
0.00566421
0.00611708
0.00657802
0.00704634
0.00752138
0.00800247
0.00848896
0.0089802
0.00947555
0.00997436
0.0104759
0.0109796
0.0114847
0.0119905
0.0124964
0.0130019
0.013506
0.0140083
0.0145079
0.0150042
0.0154965
0.0159842
0.0164666
0.016943
0.0174126
0.0178748
0.018329
0.0187744
0.0192104
0.0196364
0.0200518
0.020456
0.0208483
0.0212282
0.0215951
0.0219484
0.0222878
0.0226127
0.0229226
0.0232171
0.0234956
0.0237577
0.024003
0.024231
0.0244414
0.0246337
0.0248076
0.0249629
0.0250993
0.0252167
0.0253148
0.0253939
0.0254539
0.0254954
0.0255188
0.0255251
0.025515
0.0254898
0.0254512
0.0254006
0.0253318
0.0252384
-0.000816334
-0.000943054
-0.00105263
-0.00115147
-0.00124459
-0.00132804
-0.0013983
-0.00145318
-0.00149106
-0.00151068
-0.00151121
-0.00149215
-0.00145324
-0.00139435
-0.00131551
-0.00121685
-0.00109859
-0.000960995
-0.000804391
-0.00062917
-0.000435736
-0.000224478
4.21494e-06
0.000249931
0.000512231
0.000790677
0.00108485
0.00139432
0.00171867
0.0020574
0.00240999
0.00277594
0.00315473
0.00354584
0.00394869
0.00436269
0.00478721
0.00522164
0.00566538
0.00611782
0.00657831
0.00704617
0.00752072
0.00800131
0.00848731
0.00897807
0.00947295
0.00997127
0.0104724
0.0109756
0.0114802
0.0119856
0.0124912
0.0129963
0.0135002
0.0140021
0.0145014
0.0149975
0.0154895
0.015977
0.0164591
0.0169352
0.0174046
0.0178665
0.0183204
0.0187655
0.0192013
0.0196271
0.0200422
0.0204461
0.0208381
0.0212177
0.0215842
0.0219373
0.0222764
0.0226009
0.0229105
0.0232046
0.0234828
0.0237446
0.0239896
0.0242173
0.0244275
0.0246197
0.0247937
0.0249492
0.0250859
0.0252037
0.0253025
0.0253823
0.0254431
0.0254854
0.0255095
0.0255161
0.0255059
0.0254795
0.0254382
0.0253832
0.0253062
0.0251997
-0.000900402
-0.00103265
-0.00114187
-0.00123601
-0.00132246
-0.00139847
-0.00146121
-0.00150889
-0.00154015
-0.0015539
-0.00154931
-0.0015258
-0.00148301
-0.00142078
-0.00133911
-0.00123804
-0.00111772
-0.000978371
-0.000820295
-0.000643846
-0.000449375
-0.000237229
-7.77701e-06
0.000238573
0.0005014
0.000780301
0.00107488
0.00138472
0.00170938
0.00204837
0.00240119
0.00276736
0.00314638
0.0035377
0.00394075
0.00435492
0.00477962
0.00521423
0.00565817
0.0061108
0.00657147
0.00703948
0.00751419
0.00799495
0.00848113
0.0089721
0.00946718
0.00996573
0.0104671
0.0109705
0.0114754
0.0119812
0.0124871
0.0129926
0.0134968
0.0139991
0.0144988
0.0149952
0.0154877
0.0159755
0.016458
0.0169344
0.0174041
0.0178663
0.0183204
0.0187659
0.0192019
0.019628
0.0200435
0.0204477
0.02084
0.0212199
0.0215868
0.0219402
0.0222795
0.0226043
0.022914
0.0232082
0.0234865
0.0237483
0.0239933
0.0242211
0.0244313
0.0246236
0.0247977
0.0249534
0.0250905
0.0252087
0.025308
0.0253884
0.0254498
0.0254926
0.0255171
0.0255236
0.0255126
0.0254846
0.0254405
0.0253811
0.0252971
0.02518
-0.000990787
-0.00112792
-0.00123794
-0.00132955
-0.00141159
-0.00148222
-0.00153919
-0.0015811
-0.00160682
-0.00161542
-0.00160615
-0.00157845
-0.00153193
-0.00146641
-0.00138182
-0.00127818
-0.00115559
-0.00101425
-0.000854445
-0.000676459
-0.000480599
-0.000267191
-3.66018e-05
0.000210775
0.000474554
0.000754365
0.00104982
0.00136051
0.00168596
0.00202572
0.0023793
0.00274624
0.00312604
0.00351814
0.00392195
0.00433688
0.00476233
0.00519773
0.00564246
0.00609589
0.00655733
0.00702612
0.00750162
0.0079832
0.00847024
0.00896208
0.00945805
0.0099575
0.0104597
0.0109642
0.0114701
0.0119769
0.0124839
0.0129904
0.0134957
0.013999
0.0144998
0.0149972
0.0154907
0.0159795
0.016463
0.0169403
0.0174108
0.017874
0.018329
0.0187753
0.0192123
0.0196392
0.0200556
0.0204607
0.020854
0.0212348
0.0216026
0.0219569
0.022297
0.0226225
0.022933
0.0232278
0.0235065
0.0237688
0.0240141
0.0242422
0.0244526
0.0246452
0.0248197
0.0249757
0.0251132
0.0252319
0.0253316
0.0254125
0.0254744
0.0255175
0.025542
0.0255482
0.0255362
0.0255065
0.0254596
0.0253963
0.0253063
0.0251808
-0.0010914
-0.00123247
-0.00134363
-0.00143398
-0.00151318
-0.00157991
-0.00163243
-0.00166971
-0.00169082
-0.00169496
-0.00168147
-0.00164985
-0.00159978
-0.00153103
-0.00144349
-0.00133716
-0.00121214
-0.00106863
-0.000906839
-0.000727018
-0.000529441
-0.000314431
-8.23446e-05
0.000166453
0.000431616
0.000712792
0.00100959
0.00132158
0.00164833
0.00198936
0.00234425
0.00271251
0.00309363
0.00348705
0.00389217
0.00430843
0.00473524
0.00517201
0.00561812
0.00607292
0.00653573
0.00700591
0.00748284
0.00796589
0.00845442
0.00894779
0.00944531
0.00994632
0.0104502
0.0109563
0.0114639
0.0119724
0.0124812
0.0129894
0.0134965
0.0140016
0.0145041
0.0150032
0.0154984
0.0159889
0.0164739
0.0169528
0.0174249
0.0178895
0.018346
0.0187939
0.0192323
0.0196608
0.0200787
0.0204854
0.0208801
0.0212625
0.0216317
0.0219874
0.0223289
0.0226557
0.0229673
0.0232632
0.0235429
0.023806
0.024052
0.0242807
0.0244918
0.0246849
0.0248598
0.0250163
0.0251543
0.0252735
0.0253737
0.025455
0.0255172
0.0255605
0.0255849
0.0255906
0.0255776
0.0255461
0.0254967
0.0254299
0.025335
0.025203
-0.00120485
-0.00134898
-0.00146123
-0.00155099
-0.00162839
-0.00169231
-0.00174139
-0.00177491
-0.00179215
-0.0017924
-0.00177512
-0.00173991
-0.00168645
-0.00161453
-0.00152402
-0.00141493
-0.00128737
-0.00114149
-0.000977473
-0.00079553
-0.000595934
-0.000379002
-0.000145062
0.00010556
0.00037254
0.000655525
0.000954114
0.00126788
0.0015964
0.00193925
0.00229597
0.00266609
0.00304908
0.00344436
0.00385136
0.00426952
0.00469826
0.00513698
0.00558504
0.00604178
0.00650656
0.00697875
0.00745772
0.00794286
0.00843353
0.00892906
0.00942878
0.00993204
0.0104382
0.0109466
0.0114567
0.0119676
0.0124788
0.0129895
0.0134989
0.0140064
0.0145113
0.0150129
0.0155104
0.0160032
0.0164905
0.0169717
0.017446
0.0179128
0.0183715
0.0188215
0.0192622
0.0196929
0.0201129
0.0205216
0.0209185
0.0213028
0.0216741
0.0220317
0.0223751
0.0227037
0.023017
0.0233144
0.0235955
0.0238599
0.0241071
0.0243368
0.0245488
0.0247427
0.0249184
0.0250757
0.0252143
0.025334
0.0254347
0.0255164
0.0255789
0.0256222
0.0256464
0.0256514
0.0256374
0.0256041
0.0255524
0.0254825
0.0253836
0.0252464
-0.00133277
-0.00147935
-0.00159259
-0.00168208
-0.00175827
-0.00182018
-0.00186659
-0.00189702
-0.00191094
-0.00190778
-0.00188711
-0.00184857
-0.00179186
-0.00171681
-0.00162334
-0.00151145
-0.00138123
-0.0012328
-0.00106631
-0.000881984
-0.000680088
-0.000460915
-0.000224755
2.80958e-05
0.000297316
0.00058254
0.000883366
0.00119938
0.00153019
0.00187537
0.00223447
0.00260698
0.00299236
0.00339005
0.00379949
0.00422013
0.00465138
0.00509261
0.00554319
0.00600247
0.00646982
0.00694462
0.00742627
0.00791413
0.00840756
0.00890589
0.00940846
0.00991462
0.0104237
0.0109352
0.0114483
0.0119623
0.0124765
0.0129903
0.0135028
0.0140134
0.0145214
0.015026
0.0155266
0.0160224
0.0165127
0.0169968
0.0174741
0.0179438
0.0184055
0.0188584
0.0193019
0.0197353
0.0201581
0.0205695
0.0209691
0.021356
0.0217298
0.0220899
0.0224357
0.0227666
0.023082
0.0233814
0.0236644
0.0239305
0.0241794
0.0244106
0.0246239
0.0248191
0.0249959
0.025154
0.0252934
0.0254138
0.025515
0.025597
0.0256596
0.0257029
0.0257266
0.025731
0.0257158
0.0256809
0.0256269
0.0255544
0.0254521
0.0253107
-0.00147612
-0.00162482
-0.00173903
-0.00182843
-0.00190378
-0.00196417
-0.00200848
-0.00203634
-0.00204738
-0.0020412
-0.00201744
-0.00197576
-0.00191594
-0.00183783
-0.0017414
-0.00162665
-0.00149364
-0.00134247
-0.0011733
-0.000986355
-0.000781882
-0.000560139
-0.000321386
-6.59134e-05
0.000205949
0.000493831
0.000797342
0.0011161
0.0014497
0.00179773
0.00215972
0.00253514
0.00292345
0.00332411
0.00373657
0.00416026
0.00459459
0.00503891
0.00549259
0.00595501
0.00642556
0.00690361
0.00738857
0.00787979
0.00837662
0.0088784
0.00938447
0.0098942
0.010407
0.0109221
0.0114388
0.0119566
0.0124745
0.012992
0.0135083
0.0140226
0.0145343
0.0150427
0.015547
0.0160465
0.0165405
0.0170283
0.0175092
0.0179826
0.0184479
0.0189044
0.0193514
0.0197883
0.0202145
0.0206292
0.021032
0.0214221
0.021799
0.022162
0.0225106
0.0228443
0.0231623
0.0234643
0.0237497
0.024018
0.024269
0.0245021
0.0247173
0.024914
0.0250922
0.0252515
0.0253919
0.025513
0.0256147
0.0256969
0.0257596
0.0258026
0.0258258
0.0258293
0.0258129
0.0257764
0.0257205
0.0256456
0.0255404
0.0253957
-0.00163557
-0.00178621
-0.00190143
-0.00199092
-0.00206567
-0.00212485
-0.00216742
-0.0021931
-0.00220164
-0.00219275
-0.0021661
-0.00212145
-0.00205862
-0.00197752
-0.00187813
-0.00176044
-0.00162451
-0.00147043
-0.0012984
-0.00110861
-0.000901278
-0.000676636
-0.000434933
-0.000176468
9.84218e-05
0.000389377
0.000696026
0.001018
0.0013549
0.00170629
0.00207166
0.00245051
0.00284231
0.0032465
0.00366255
0.00408987
0.00452785
0.00497585
0.00543325
0.00589945
0.00637383
0.00685579
0.00734471
0.00783994
0.00834084
0.00884674
0.009357
0.00987099
0.010388
0.0109075
0.0114286
0.0119507
0.012473
0.0129948
0.0135154
0.0140341
0.0145502
0.0150629
0.0155716
0.0160755
0.0165739
0.0170661
0.0175514
0.0180292
0.0184988
0.0189596
0.0194109
0.0198519
0.0202821
0.0207007
0.0211073
0.0215011
0.0218815
0.022248
0.0226
0.0229369
0.0232581
0.0235631
0.0238513
0.0241224
0.024376
0.0246115
0.0248288
0.0250276
0.0252074
0.0253682
0.0255096
0.0256315
0.0257337
0.0258162
0.0258788
0.0259214
0.025944
0.0259466
0.025929
0.025891
0.0258332
0.0257562
0.0256487
0.0255012
-0.00181167
-0.00196413
-0.00208039
-0.00217011
-0.00224444
-0.00230264
-0.00234372
-0.00236753
-0.00237386
-0.00236245
-0.0023331
-0.00228561
-0.00221988
-0.00213584
-0.00203347
-0.00191276
-0.00177379
-0.00161668
-0.00144161
-0.00124874
-0.00103827
-0.000810418
-0.000565437
-0.000303634
-2.53413e-05
0.000269101
0.00057934
0.000905002
0.00124568
0.0016009
0.00197017
0.00235297
0.00274879
0.00315709
0.00357729
0.00400882
0.00445104
0.00490334
0.00536509
0.00583572
0.00631461
0.00680115
0.00729471
0.00779465
0.00830031
0.00881104
0.0093262
0.00984514
0.0103672
0.0108916
0.0114178
0.0119448
0.0124721
0.0129989
0.0135246
0.0140483
0.0145694
0.0150871
0.0156009
0.0161098
0.0166132
0.0171105
0.0176009
0.0180838
0.0185585
0.0190242
0.0194803
0.0199261
0.0203609
0.0207841
0.021195
0.021593
0.0219776
0.0223481
0.022704
0.0230446
0.0233694
0.0236779
0.0239695
0.0242438
0.0245003
0.0247387
0.0249586
0.0251595
0.0253413
0.0255037
0.0256463
0.0257691
0.0258719
0.0259546
0.0260171
0.0260594
0.0260814
0.026083
0.0260642
0.0260248
0.0259655
0.0258867
0.0257771
0.0256271
-0.00200483
-0.00215905
-0.00227632
-0.00236637
-0.00244046
-0.00249787
-0.0025377
-0.00255983
-0.00256413
-0.0025504
-0.00251849
-0.00246831
-0.00239977
-0.00231281
-0.00220743
-0.00208364
-0.00194155
-0.00178129
-0.00160299
-0.00140682
-0.00119295
-0.000961598
-0.000713037
-0.000447566
-0.000165498
0.000132844
0.000447107
0.000776905
0.00112181
0.00148134
0.00185499
0.00224227
0.00264266
0.00305561
0.00348055
0.00391686
0.00436394
0.00482115
0.00528792
0.00576365
0.00624774
0.00673955
0.00723846
0.00774382
0.00825497
0.00877126
0.00929204
0.00981666
0.0103444
0.0108746
0.0114064
0.0119391
0.0124721
0.0130046
0.0135359
0.0140653
0.0145921
0.0151156
0.015635
0.0161497
0.0166589
0.0171619
0.017658
0.0181466
0.0186269
0.0190983
0.0195599
0.020011
0.020451
0.0208793
0.0212952
0.021698
0.0220873
0.0224624
0.0228226
0.0231675
0.0234964
0.0238088
0.0241042
0.0243821
0.024642
0.0248836
0.0251063
0.0253097
0.0254937
0.0256578
0.0258019
0.0259257
0.0260292
0.0261122
0.0261747
0.0262167
0.0262382
0.0262391
0.0262192
0.0261786
0.0261178
0.0260374
0.0259259
0.0257737
-0.00221532
-0.0023713
-0.00248961
-0.00258006
-0.00265404
-0.00271085
-0.00274961
-0.00277023
-0.00277266
-0.00275677
-0.00272247
-0.00266971
-0.00259841
-0.00250854
-0.00240013
-0.00227323
-0.00212795
-0.0019644
-0.00178271
-0.00158301
-0.00136549
-0.00113039
-0.00087796
-0.00060849
-0.000322275
-1.96338e-05
0.00029907
0.000633429
0.000982997
0.0013473
0.00172583
0.00211812
0.00252362
0.00294178
0.003372
0.00381369
0.00426623
0.00472902
0.00520148
0.005683
0.00617298
0.00667078
0.00717576
0.00768726
0.00820464
0.00872724
0.00925439
0.0097854
0.0103196
0.0108561
0.0113944
0.0119335
0.0124729
0.0130118
0.0135496
0.0140854
0.0146186
0.0151485
0.0156744
0.0161955
0.0167111
0.0172205
0.017723
0.0182179
0.0187045
0.019182
0.0196497
0.0201067
0.0205526
0.0209865
0.021408
0.0218162
0.0222107
0.0225909
0.0229561
0.0233057
0.0236392
0.023956
0.0242556
0.0245374
0.024801
0.0250459
0.0252717
0.025478
0.0256643
0.0258305
0.0259762
0.0261013
0.0262057
0.0262892
0.026352
0.0263939
0.0264151
0.0264154
0.0263947
0.026353
0.0262909
0.026209
0.0260957
0.0259412
-0.00244332
-0.00260118
-0.00272062
-0.00281156
-0.00288558
-0.00294194
-0.00297976
-0.00299903
-0.00299976
-0.00298187
-0.00294532
-0.00289006
-0.00281604
-0.00272329
-0.00261185
-0.00248181
-0.00233326
-0.00216628
-0.001981
-0.00177757
-0.00155619
-0.00131707
-0.00106048
-0.000786668
-0.000495935
-0.000188603
0.000134941
0.000474274
0.000828947
0.00119849
0.00158241
0.00198022
0.00239137
0.00281528
0.00325137
0.00369903
0.00415767
0.00462669
0.0051055
0.00559352
0.0060901
0.00659459
0.00710636
0.00762474
0.0081491
0.00867874
0.00921299
0.00975114
0.0102924
0.0108362
0.0113816
0.0119279
0.0124744
0.0130205
0.0135655
0.0141085
0.0146489
0.015186
0.015719
0.0162472
0.01677
0.0172865
0.017796
0.0182979
0.0187914
0.0192756
0.0197499
0.0202135
0.0206657
0.021106
0.0215335
0.0219478
0.0223481
0.0227339
0.0231045
0.0234594
0.0237979
0.0241195
0.0244236
0.0247097
0.0249773
0.0252259
0.025455
0.0256643
0.0258533
0.0260218
0.0261695
0.0262962
0.0264018
0.0264863
0.0265496
0.0265918
0.0266129
0.0266128
0.0265915
0.0265488
0.0264855
0.0264021
0.0262869
0.02613
-0.00268913
-0.00284904
-0.00296976
-0.00306133
-0.00313549
-0.00319153
-0.00322858
-0.00324668
-0.00324587
-0.00322613
-0.00318741
-0.00312971
-0.00305303
-0.00295742
-0.00284296
-0.00270971
-0.00255776
-0.00238721
-0.00219816
-0.0019908
-0.00176532
-0.00152192
-0.00126084
-0.000982338
-0.000686711
-0.000374306
-4.55242e-05
0.000299205
0.000659438
0.00103471
0.00142452
0.00182837
0.0022457
0.00267593
0.00311846
0.00357271
0.00403809
0.004514
0.00499986
0.00549505
0.00599893
0.00651083
0.00703011
0.00755611
0.00808817
0.00862558
0.00916765
0.00971364
0.0102628
0.0108144
0.0113677
0.0119219
0.0124764
0.0130305
0.0135834
0.0141344
0.0146828
0.0152279
0.0157688
0.016305
0.0168356
0.0173599
0.0178772
0.0183867
0.0188876
0.0193792
0.0198608
0.0203315
0.0207907
0.0212378
0.0216721
0.0220929
0.0224996
0.0228915
0.0232681
0.0236287
0.0239726
0.0242994
0.0246084
0.0248991
0.025171
0.0254235
0.0256563
0.0258689
0.0260609
0.0262321
0.0263821
0.0265109
0.0266182
0.026704
0.0267684
0.0268112
0.0268324
0.0268322
0.0268103
0.0267666
0.026702
0.026617
0.0264997
0.0263401
-0.00295317
-0.00311534
-0.00323751
-0.00332984
-0.0034043
-0.00346017
-0.00349662
-0.00351371
-0.00351151
-0.00349
-0.0034492
-0.00338911
-0.00330981
-0.00321136
-0.00309382
-0.00295728
-0.00280179
-0.00262748
-0.00243449
-0.00222297
-0.00199312
-0.00174513
-0.00147922
-0.00119566
-0.000894765
-0.000576896
-0.000242463
0.000108105
0.000474372
0.000855866
0.00125209
0.00166251
0.00208657
0.00252368
0.00297325
0.00343471
0.00390749
0.00439097
0.00488455
0.0053876
0.00589947
0.00641949
0.00694699
0.00748133
0.0080218
0.00856769
0.00911827
0.0096728
0.0102305
0.0107907
0.0113526
0.0119155
0.0124788
0.0130416
0.0136033
0.0141631
0.0147202
0.015274
0.0158238
0.0163686
0.0169079
0.0174407
0.0179665
0.0184843
0.0189934
0.019493
0.0199824
0.0204609
0.0209278
0.0213823
0.0218239
0.0222519
0.0226655
0.0230642
0.0234472
0.023814
0.0241638
0.0244961
0.0248104
0.025106
0.0253825
0.0256393
0.0258761
0.0260924
0.0262878
0.0264621
0.026615
0.0267463
0.0268557
0.0269433
0.027009
0.0270527
0.0270744
0.027074
0.0270515
0.0270067
0.0269405
0.0268537
0.026734
0.0265714
-0.00323595
-0.00340058
-0.00352437
-0.00361765
-0.00369257
-0.00374845
-0.00378446
-0.00380067
-0.00379717
-0.00377398
-0.00373115
-0.00366874
-0.00358683
-0.00348549
-0.00336479
-0.0032248
-0.00306561
-0.00288737
-0.00269021
-0.00247428
-0.00223976
-0.00198683
-0.00171572
-0.00142672
-0.00112017
-0.000796425
-0.000455904
-9.90276e-05
0.000273767
0.000661997
0.00106515
0.00148268
0.00191402
0.0023586
0.00281583
0.00328515
0.00376597
0.00425768
0.00475966
0.00527127
0.00579182
0.00632065
0.00685709
0.00740045
0.00795003
0.00850509
0.00906487
0.00962864
0.0101957
0.0107652
0.0113364
0.0119088
0.0124815
0.0130538
0.0136251
0.0141944
0.0147612
0.0153245
0.0158837
0.0164381
0.0169867
0.0175289
0.0180638
0.0185906
0.0191087
0.019617
0.0201151
0.020602
0.0210771
0.0215398
0.0219894
0.0224251
0.0228463
0.0232522
0.0236422
0.0240155
0.0243717
0.02471
0.0250299
0.0253308
0.0256123
0.0258739
0.0261151
0.0263356
0.0265349
0.0267128
0.0268689
0.0270031
0.0271152
0.0272049
0.0272721
0.0273168
0.0273389
0.0273384
0.0273151
0.027269
0.0272011
0.027112
0.0269897
0.0268238
-0.003538
-0.00370531
-0.00383094
-0.00392535
-0.00400093
-0.00405698
-0.00409266
-0.00410809
-0.00410336
-0.00407855
-0.00403374
-0.00396901
-0.00388445
-0.00378012
-0.00365611
-0.00351252
-0.00334946
-0.00316706
-0.00296547
-0.00274482
-0.00250528
-0.00224705
-0.00197037
-0.00167555
-0.00136293
-0.00103289
-0.000685818
-0.000322148
5.7674e-05
0.000453152
0.000863754
0.00128894
0.00172814
0.00218077
0.00264629
0.00312411
0.00361364
0.00411425
0.00462529
0.00514612
0.00567604
0.00621438
0.00676045
0.00731354
0.00787292
0.00843784
0.00900752
0.00958124
0.0101583
0.0107378
0.0113193
0.0119018
0.0124848
0.0130674
0.0136489
0.0142286
0.0148056
0.0153793
0.0159488
0.0165133
0.0170721
0.0176243
0.0181691
0.0187058
0.0192334
0.0197513
0.0202587
0.0207549
0.0212391
0.0217106
0.0221688
0.0226129
0.0230422
0.0234559
0.0238533
0.0242338
0.0245967
0.0249415
0.0252675
0.0255743
0.0258614
0.0261282
0.0263743
0.0265994
0.026803
0.0269849
0.0271447
0.0272822
0.027397
0.0274889
0.0275578
0.0276036
0.027626
0.0276251
0.0276009
0.0275533
0.0274833
0.027392
0.0272667
0.0270974
-0.00385985
-0.00403012
-0.00415779
-0.00425352
-0.00432991
-0.00438624
-0.0044217
-0.0044364
-0.00443051
-0.00440413
-0.00435734
-0.00429025
-0.00420294
-0.00409549
-0.00396802
-0.00382065
-0.0036535
-0.0034667
-0.00326038
-0.00303468
-0.00278977
-0.00252587
-0.00224324
-0.0019422
-0.0016231
-0.00128631
-0.000932222
-0.000561275
-0.00017393
0.0002293
0.000647877
0.00108126
0.00152889
0.00199019
0.00246462
0.00295158
0.00345046
0.00396061
0.00448138
0.00501209
0.00555207
0.0061006
0.00665698
0.00722049
0.00779036
0.00836583
0.00894614
0.00953055
0.0101183
0.0107087
0.0113011
0.0118946
0.0124886
0.0130823
0.013675
0.0142657
0.0148538
0.0154385
0.016019
0.0165945
0.0171641
0.0177271
0.0182825
0.0188297
0.0193678
0.019896
0.0204136
0.0209197
0.0214138
0.0218949
0.0223625
0.0228156
0.0232536
0.0236757
0.0240812
0.0244693
0.0248395
0.0251913
0.025524
0.0258372
0.0261303
0.0264029
0.0266544
0.0268846
0.027093
0.0272792
0.0274429
0.0275838
0.0277014
0.0277956
0.0278661
0.0279128
0.0279354
0.0279341
0.0279087
0.0278594
0.0277873
0.0276935
0.0275654
0.0273924
-0.00420201
-0.0043755
-0.00450544
-0.00460264
-0.00467994
-0.00473665
-0.00477196
-0.00478602
-0.00477901
-0.00475106
-0.00470226
-0.00463271
-0.00454252
-0.00443182
-0.00430074
-0.0041494
-0.00397793
-0.00378645
-0.00357509
-0.00334399
-0.00309336
-0.00282343
-0.00253448
-0.00222684
-0.00190084
-0.00155685
-0.00119528
-0.000816587
-0.000421241
-9.76391e-06
0.000417304
0.000859431
0.00131607
0.00178664
0.00227059
0.0027673
0.00327616
0.00379648
0.00432762
0.00486888
0.00541957
0.00597897
0.00654634
0.00712095
0.00770201
0.00828876
0.00888043
0.0094763
0.0100756
0.0106777
0.0112818
0.0118872
0.012493
0.0130986
0.0137031
0.0143058
0.0149057
0.0155022
0.0160945
0.0166816
0.0172628
0.0178373
0.0184041
0.0189626
0.0195119
0.0200512
0.0205797
0.0210967
0.0216013
0.0220928
0.0225705
0.0230334
0.0234808
0.0239119
0.024326
0.0247225
0.0251007
0.02546
0.0258
0.0261201
0.0264199
0.0266987
0.0269562
0.0271918
0.0274052
0.027596
0.0277637
0.027908
0.0280285
0.0281248
0.0281968
0.0282443
0.028267
0.0282651
0.0282386
0.0281876
0.0281134
0.0280172
0.0278861
0.0277094
-0.00456493
-0.0047419
-0.00487428
-0.00497306
-0.0050514
-0.00510858
-0.00514382
-0.00515729
-0.00514919
-0.00511963
-0.00506874
-0.00499665
-0.00490349
-0.00478941
-0.00465456
-0.00449905
-0.00432301
-0.00412656
-0.00390985
-0.00367304
-0.00341636
-0.00314007
-0.00284444
-0.00252979
-0.00219646
-0.00184484
-0.00147536
-0.00108847
-0.000684652
-0.000264439
0.000171641
0.000623062
0.00108928
0.00156971
0.00206377
0.00257084
0.00309028
0.0036214
0.00416353
0.00471599
0.00527805
0.00584897
0.006428
0.00701439
0.00760735
0.0082061
0.00880991
0.00941804
0.0100298
0.0106444
0.011261
0.0118791
0.0124977
0.013116
0.0137332
0.0143486
0.0149613
0.0155704
0.0161751
0.0167747
0.0173683
0.017955
0.0185341
0.0191046
0.0196659
0.0202171
0.0207574
0.0212859
0.0218019
0.0223045
0.022793
0.0232663
0.0237239
0.0241647
0.0245882
0.0249937
0.0253805
0.0257482
0.0260961
0.0264238
0.0267306
0.0270162
0.02728
0.0275214
0.02774
0.0279354
0.0281071
0.0282548
0.028378
0.0284765
0.02855
0.0285982
0.0286211
0.0286188
0.0285912
0.0285387
0.0284625
0.0283639
0.0282299
0.0280494
-0.00494901
-0.0051297
-0.00526467
-0.00536518
-0.00544466
-0.00550242
-0.00553766
-0.00555058
-0.00554137
-0.00551018
-0.00545715
-0.00538246
-0.00528624
-0.00516867
-0.00502988
-0.00487
-0.00468915
-0.00448746
-0.00426512
-0.00402232
-0.00375928
-0.00347628
-0.0031736
-0.00285155
-0.00251049
-0.00215082
-0.00177299
-0.00137745
-0.000964697
-0.000535249
-8.96277e-05
0.000371642
0.000848006
0.00133887
0.00184363
0.00236166
0.00289228
0.00343482
0.00398858
0.00455287
0.00512694
0.00571003
0.00630139
0.00690024
0.00750581
0.00811733
0.00873405
0.00935525
0.00998021
0.0106082
0.0112383
0.0118699
0.012502
0.013134
0.0137648
0.0143938
0.01502
0.0156426
0.0162608
0.0168737
0.0174805
0.0180803
0.0186724
0.0192558
0.0198299
0.0203938
0.0209466
0.0214875
0.0220156
0.0225301
0.02303
0.0235146
0.023983
0.0244344
0.024868
0.0252833
0.0256795
0.0260561
0.0264126
0.0267484
0.0270629
0.0273556
0.027626
0.0278734
0.0280974
0.0282975
0.0284733
0.0286244
0.0287504
0.028851
0.0289261
0.0289752
0.0289985
0.0289959
0.0289676
0.0289138
0.0288358
0.0287349
0.0285979
0.0284134
-0.00535467
-0.0055393
-0.00567704
-0.00577941
-0.00586016
-0.00591861
-0.00595393
-0.00596632
-0.00595602
-0.0059232
-0.00586803
-0.00579069
-0.00569136
-0.00557017
-0.00542729
-0.00526282
-0.00507693
-0.00486978
-0.00464155
-0.00439247
-0.00412276
-0.0038327
-0.00352258
-0.00319274
-0.00284354
-0.0024754
-0.00208877
-0.00168413
-0.00126195
-0.000822738
-0.000367027
0.000104659
0.000591749
0.00109363
0.00160968
0.00213926
0.00268169
0.00323627
0.0038023
0.00437906
0.00496579
0.00556172
0.00616608
0.0067781
0.00739701
0.00802205
0.00865248
0.00928758
0.00992659
0.0105687
0.0112132
0.0118591
0.0125057
0.0131521
0.0137975
0.0144409
0.0150815
0.0157185
0.016351
0.0169782
0.0175991
0.018213
0.018819
0.0194163
0.0200041
0.0205814
0.0211476
0.0217016
0.0222425
0.0227696
0.0232818
0.0237783
0.0242583
0.024721
0.0251656
0.0255914
0.0259978
0.0263841
0.0267498
0.0270942
0.0274169
0.0277171
0.0279943
0.0282479
0.0284774
0.0286824
0.0288624
0.0290171
0.0291462
0.0292492
0.0293261
0.0293765
0.0294005
0.029398
0.0293691
0.0293141
0.0292344
0.0291313
0.0289911
0.0288021
-0.00578241
-0.00597122
-0.00611192
-0.0062163
-0.00629847
-0.00635771
-0.00639318
-0.00640512
-0.00639378
-0.00635937
-0.00630208
-0.00622208
-0.00611954
-0.00599463
-0.00584748
-0.00567825
-0.00548712
-0.00527426
-0.00503988