/*--------------------------------*- C++ -*----------------------------------*\
| =========                 |                                                 |
| \\      /  F ield         | OpenFOAM: The Open Source CFD Toolbox           |
|  \\    /   O peration     | Version:  2512                                  |
|   \\  /    A nd           | Website:  www.openfoam.com                      |
|    \\/     M anipulation  |                                                 |
\*---------------------------------------------------------------------------*/
FoamFile
{
    version     2.0;
    format      ascii;
    arch        "LSB;label=32;scalar=64";
    class       surfaceScalarField;
    location    "0.02";
    object      phi;
}
// * * * * * * * * * * * * * * * * * * * * * * * * * * * * * * * * * * * * * //

dimensions      [0 3 -1 0 0 0 0];

oriented        oriented;

internalField   nonuniform List<scalar> 
19800
(
7.00615e-11
-7.00259e-11
1.38899e-10
-6.88521e-11
1.85468e-11
1.20363e-10
-2.30701e-10
2.49247e-10
-5.94837e-10
3.64139e-10
-1.04792e-09
4.53079e-10
-1.56673e-09
5.18813e-10
-2.13252e-09
5.65783e-10
-2.73031e-09
5.97794e-10
-3.34838e-09
6.18067e-10
-3.97782e-09
6.29439e-10
-4.61212e-09
6.34299e-10
-5.24665e-09
6.3453e-10
-5.87804e-09
6.31387e-10
-6.50377e-09
6.25729e-10
-7.12202e-09
6.18247e-10
-7.73145e-09
6.09434e-10
-8.33104e-09
5.99585e-10
-8.91994e-09
5.88895e-10
-9.49745e-09
5.77509e-10
-1.00629e-08
5.65492e-10
-1.06158e-08
5.5287e-10
-1.11555e-08
5.39672e-10
-1.16814e-08
5.25941e-10
-1.21931e-08
5.11707e-10
-1.26901e-08
4.9697e-10
-1.31718e-08
4.81726e-10
-1.36378e-08
4.6598e-10
-1.40876e-08
4.4975e-10
-1.45206e-08
4.33063e-10
-1.49365e-08
4.1592e-10
-1.53348e-08
3.98306e-10
-1.57151e-08
3.80237e-10
-1.60768e-08
3.61753e-10
-1.64197e-08
3.42882e-10
-1.67434e-08
3.2363e-10
-1.70474e-08
3.04007e-10
-1.73314e-08
2.84034e-10
-1.75951e-08
2.63734e-10
-1.78383e-08
2.43127e-10
-1.80605e-08
2.22235e-10
-1.82616e-08
2.01072e-10
-1.84412e-08
1.7965e-10
-1.85992e-08
1.57986e-10
-1.87353e-08
1.36111e-10
-1.88494e-08
1.14056e-10
-1.89412e-08
9.18446e-11
-1.90107e-08
6.9494e-11
-1.90577e-08
4.70177e-11
-1.90822e-08
2.44379e-11
-1.9084e-08
1.78539e-12
-1.90631e-08
-2.09151e-11
-1.90194e-08
-4.36382e-11
-1.89531e-08
-6.63674e-11
-1.8864e-08
-8.90839e-11
-1.87522e-08
-1.11767e-10
-1.86178e-08
-1.34393e-10
-1.84609e-08
-1.56936e-10
-1.82815e-08
-1.7937e-10
-1.80799e-08
-2.01665e-10
-1.78561e-08
-2.23792e-10
-1.76104e-08
-2.45722e-10
-1.73429e-08
-2.67426e-10
-1.70541e-08
-2.88875e-10
-1.6744e-08
-3.10041e-10
-1.64131e-08
-3.30891e-10
-1.60617e-08
-3.51394e-10
-1.56902e-08
-3.71525e-10
-1.52989e-08
-3.9126e-10
-1.48884e-08
-4.10577e-10
-1.44589e-08
-4.29456e-10
-1.4011e-08
-4.47877e-10
-1.35452e-08
-4.65815e-10
-1.3062e-08
-4.83252e-10
-1.25618e-08
-5.00172e-10
-1.20452e-08
-5.16556e-10
-1.15128e-08
-5.32391e-10
-1.09652e-08
-5.47663e-10
-1.04028e-08
-5.62351e-10
-9.8264e-09
-5.76425e-10
-9.23655e-09
-5.89848e-10
-8.63399e-09
-6.02556e-10
-8.01954e-09
-6.14453e-10
-7.39415e-09
-6.2539e-10
-6.75901e-09
-6.35141e-10
-6.11565e-09
-6.4336e-10
-5.46612e-09
-6.49535e-10
-4.81318e-09
-6.52932e-10
-4.16065e-09
-6.52528e-10
-3.5137e-09
-6.46947e-10
-2.87932e-09
-6.34385e-10
-2.26675e-09
-6.12562e-10
-1.68804e-09
-5.78714e-10
-1.15839e-09
-5.29661e-10
-6.96338e-10
-4.62048e-10
-3.23353e-10
-3.72982e-10
-6.18163e-11
-2.61537e-10
6.99268e-11
-1.31759e-10
7.16792e-11
-1.79293e-12
7.16439e-11
-6.7879e-11
-2.16105e-12
-2.67573e-10
1.30869e-10
-7.09946e-10
5.62724e-10
-1.4448e-09
9.84107e-10
-2.43284e-09
1.35217e-09
-3.63161e-09
1.65185e-09
-4.99654e-09
1.88373e-09
-6.48608e-09
2.05533e-09
-8.06468e-09
2.17639e-09
-9.70322e-09
2.2566e-09
-1.13786e-08
2.30479e-09
-1.30729e-08
2.32865e-09
-1.47728e-08
2.33439e-09
-1.64681e-08
2.32669e-09
-1.81514e-08
2.30903e-09
-1.98171e-08
2.28396e-09
-2.1461e-08
2.25332e-09
-2.30798e-08
2.21834e-09
-2.46707e-08
2.17988e-09
-2.62317e-08
2.13849e-09
-2.77608e-08
2.09452e-09
-2.92561e-08
2.04816e-09
-3.07159e-08
1.99956e-09
-3.21388e-08
1.94885e-09
-3.35233e-08
1.89614e-09
-3.48678e-08
1.84146e-09
-3.61709e-08
1.78484e-09
-3.74312e-08
1.72634e-09
-3.86475e-08
1.66602e-09
-3.98184e-08
1.60392e-09
-4.09425e-08
1.54008e-09
-4.20188e-08
1.47455e-09
-4.30459e-08
1.40739e-09
-4.40228e-08
1.33867e-09
-4.49484e-08
1.26847e-09
-4.58217e-08
1.19686e-09
-4.66416e-08
1.1239e-09
-4.74072e-08
1.04966e-09
-4.81177e-08
9.74215e-10
-4.87722e-08
8.97648e-10
-4.937e-08
8.20025e-10
-4.99103e-08
7.41414e-10
-5.03926e-08
6.61883e-10
-5.08161e-08
5.81509e-10
-5.11804e-08
5.00378e-10
-5.14849e-08
4.18579e-10
-5.17292e-08
3.36194e-10
-5.19131e-08
2.53302e-10
-5.2036e-08
1.69981e-10
-5.20979e-08
8.6308e-11
-5.20985e-08
2.37218e-12
-5.20377e-08
-8.17437e-11
-5.19154e-08
-1.6595e-10
-5.17316e-08
-2.50167e-10
-5.14864e-08
-3.34311e-10
-5.11798e-08
-4.183e-10
-5.08122e-08
-5.02049e-10
-5.03836e-08
-5.8547e-10
-4.98946e-08
-6.68467e-10
-4.93453e-08
-7.50936e-10
-4.87363e-08
-8.32768e-10
-4.80682e-08
-9.13859e-10
-4.73415e-08
-9.94101e-10
-4.6557e-08
-1.07339e-09
-4.57154e-08
-1.15162e-09
-4.48176e-08
-1.22869e-09
-4.38645e-08
-1.3045e-09
-4.28571e-08
-1.37894e-09
-4.17964e-08
-1.45193e-09
-4.06836e-08
-1.52337e-09
-3.95199e-08
-1.59319e-09
-3.83065e-08
-1.66129e-09
-3.70447e-08
-1.7276e-09
-3.57359e-08
-1.79205e-09
-3.43815e-08
-1.85455e-09
-3.2983e-08
-1.91504e-09
-3.1542e-08
-1.97345e-09
-3.00599e-08
-2.02968e-09
-2.85386e-08
-2.08365e-09
-2.69798e-08
-2.13522e-09
-2.53855e-08
-2.18421e-09
-2.37577e-08
-2.23036e-09
-2.20989e-08
-2.27324e-09
-2.04121e-08
-2.31224e-09
-1.87008e-08
-2.34642e-09
-1.69697e-08
-2.37443e-09
-1.52249e-08
-2.39431e-09
-1.34745e-08
-2.40334e-09
-1.17292e-08
-2.39784e-09
-1.00032e-08
-2.37297e-09
-8.31497e-09
-2.3226e-09
-6.6883e-09
-2.23923e-09
-5.15279e-09
-2.11423e-09
-3.74419e-09
-1.93827e-09
-2.50371e-09
-1.70254e-09
-1.47559e-09
-1.4011e-09
-7.01576e-10
-1.03553e-09
-2.10625e-10
-6.22657e-10
-1.55718e-12
-2.10779e-10
7.00544e-11
-1.30222e-10
1.28071e-10
-6.338e-10
6.34437e-10
-1.49219e-09
1.42112e-09
-2.72376e-09
2.21567e-09
-4.29423e-09
2.92265e-09
-6.15313e-09
3.51074e-09
-8.24486e-09
3.97545e-09
-1.05157e-08
4.3262e-09
-1.29178e-08
4.57847e-09
-1.54106e-08
4.74936e-09
-1.7961e-08
4.8552e-09
-2.05429e-08
4.91051e-09
-2.31358e-08
4.92736e-09
-2.57244e-08
4.91522e-09
-2.82967e-08
4.88137e-09
-3.08439e-08
4.83118e-09
-3.33592e-08
4.76854e-09
-3.5837e-08
4.69617e-09
-3.82731e-08
4.61596e-09
-4.06637e-08
4.52916e-09
-4.30058e-08
4.43658e-09
-4.52964e-08
4.33875e-09
-4.75329e-08
4.23604e-09
-4.97127e-08
4.12872e-09
-5.18336e-08
4.01699e-09
-5.38931e-08
3.90099e-09
-5.58891e-08
3.78082e-09
-5.78194e-08
3.65662e-09
-5.96819e-08
3.52848e-09
-6.14745e-08
3.39655e-09
-6.31953e-08
3.26091e-09
-6.48424e-08
3.12168e-09
-6.6414e-08
2.97901e-09
-6.79084e-08
2.83304e-09
-6.93239e-08
2.68394e-09
-7.06589e-08
2.53186e-09
-7.19119e-08
2.37693e-09
-7.30816e-08
2.21932e-09
-7.41666e-08
2.05918e-09
-7.51656e-08
1.89669e-09
-7.60776e-08
1.73198e-09
-7.69014e-08
1.56521e-09
-7.7636e-08
1.39655e-09
-7.82807e-08
1.22615e-09
-7.88345e-08
1.05418e-09
-7.92967e-08
8.80819e-10
-7.96668e-08
7.06241e-10
-7.99441e-08
5.30612e-10
-8.01282e-08
3.541e-10
-8.02188e-08
1.76876e-10
-8.02155e-08
-8.82529e-13
-8.01183e-08
-1.78996e-10
-7.9927e-08
-3.57284e-10
-7.96416e-08
-5.35566e-10
-7.92622e-08
-7.13665e-10
-7.87891e-08
-8.914e-10
-7.82226e-08
-1.06859e-09
-7.7563e-08
-1.24503e-09
-7.6811e-08
-1.42053e-09
-7.5967e-08
-1.59488e-09
-7.50319e-08
-1.76787e-09
-7.40065e-08
-1.93926e-09
-7.28918e-08
-2.10885e-09
-7.16887e-08
-2.27643e-09
-7.03986e-08
-2.44176e-09
-6.90226e-08
-2.60465e-09
-6.75622e-08
-2.76489e-09
-6.60189e-08
-2.92226e-09
-6.43943e-08
-3.07658e-09
-6.269e-08
-3.22763e-09
-6.09079e-08
-3.37525e-09
-5.905e-08
-3.51924e-09
-5.71181e-08
-3.65944e-09
-5.51145e-08
-3.79567e-09
-5.30413e-08
-3.92775e-09
-5.09008e-08
-4.05552e-09
-4.86955e-08
-4.1788e-09
-4.64278e-08
-4.29738e-09
-4.41004e-08
-4.41103e-09
-4.17162e-08
-4.51944e-09
-3.92783e-08
-4.62215e-09
-3.67901e-08
-4.71854e-09
-3.42557e-08
-4.80766e-09
-3.16798e-08
-4.8881e-09
-2.90684e-08
-4.95784e-09
-2.64289e-08
-5.01393e-09
-2.37709e-08
-5.05225e-09
-2.11071e-08
-5.06715e-09
-1.84539e-08
-5.0511e-09
-1.58324e-08
-4.99442e-09
-1.327e-08
-4.88504e-09
-1.08006e-08
-4.70865e-09
-8.46563e-09
-4.44917e-09
-6.31386e-09
-4.09003e-09
-4.39979e-09
-3.61661e-09
-2.78027e-09
-3.02065e-09
-1.50804e-09
-2.3078e-09
-6.21622e-10
-1.5091e-09
-1.31167e-10
-7.0121e-10
-6.11139e-11
-2.53756e-10
3.81826e-10
-1.01714e-09
1.39783e-09
-2.25635e-09
2.66033e-09
-3.9463e-09
3.90561e-09
-6.03882e-09
5.01517e-09
-8.4735e-09
5.94542e-09
-1.11863e-08
6.68823e-09
-1.41155e-08
7.25538e-09
-1.72054e-08
7.66841e-09
-2.04082e-08
7.95218e-09
-2.36842e-08
8.1312e-09
-2.70013e-08
8.2276e-09
-3.03341e-08
8.26017e-09
-3.3663e-08
8.24407e-09
-3.69727e-08
8.19107e-09
-4.02515e-08
8.11002e-09
-4.34904e-08
8.0074e-09
-4.6682e-08
7.88782e-09
-4.98206e-08
7.75451e-09
-5.29011e-08
7.60967e-09
-5.59193e-08
7.45475e-09
-5.88713e-08
7.29074e-09
-6.17535e-08
7.11831e-09
-6.45628e-08
6.93798e-09
-6.72959e-08
6.75007e-09
-6.99497e-08
6.55484e-09
-7.25214e-08
6.35254e-09
-7.50082e-08
6.14339e-09
-7.74073e-08
5.9276e-09
-7.97162e-08
5.70537e-09
-8.19322e-08
5.4769e-09
-8.40529e-08
5.24241e-09
-8.6076e-08
5.00215e-09
-8.79994e-08
4.75638e-09
-8.98208e-08
4.50534e-09
-9.15382e-08
4.24929e-09
-9.31498e-08
3.9885e-09
-9.46537e-08
3.72323e-09
-9.60483e-08
3.45376e-09
-9.73319e-08
3.18035e-09
-9.85032e-08
2.90326e-09
-9.95608e-08
2.62276e-09
-1.00503e-07
2.33912e-09
-1.0133e-07
2.05261e-09
-1.02039e-07
1.76352e-09
-1.0263e-07
1.47214e-09
-1.03103e-07
1.17875e-09
-1.03456e-07
8.83618e-10
-1.03689e-07
5.87046e-10
-1.03801e-07
2.89319e-10
-1.03793e-07
-9.26471e-12
-1.03664e-07
-3.08406e-10
-1.03413e-07
-6.07803e-10
-1.03041e-07
-9.07154e-10
-1.02549e-07
-1.20615e-09
-1.01936e-07
-1.50449e-09
-1.01203e-07
-1.80186e-09
-1.0035e-07
-2.09792e-09
-9.93779e-08
-2.39235e-09
-9.8288e-08
-2.6848e-09
-9.7081e-08
-2.97492e-09
-9.57579e-08
-3.26236e-09
-9.43199e-08
-3.54677e-09
-9.27686e-08
-3.82778e-09
-9.11053e-08
-4.10505e-09
-8.93317e-08
-4.37822e-09
-8.74497e-08
-4.64695e-09
-8.5461e-08
-4.9109e-09
-8.33679e-08
-5.16973e-09
-8.11724e-08
-5.42311e-09
-7.88769e-08
-5.67072e-09
-7.64839e-08
-5.91225e-09
-7.3996e-08
-6.1474e-09
-7.14158e-08
-6.37585e-09
-6.87462e-08
-6.5973e-09
-6.59903e-08
-6.81144e-09
-6.31511e-08
-7.01796e-09
-6.02321e-08
-7.21646e-09
-5.72366e-08
-7.40651e-09
-5.41685e-08
-7.58751e-09
-5.1032e-08
-7.75867e-09
-4.78317e-08
-7.91883e-09
-4.4573e-08
-8.06633e-09
-4.12624e-08
-8.19875e-09
-3.79076e-08
-8.31259e-09
-3.45186e-08
-8.40294e-09
-3.11079e-08
-8.46297e-09
-2.76916e-08
-8.48343e-09
-2.42905e-08
-8.45224e-09
-2.09309e-08
-8.35397e-09
-1.76462e-08
-8.1698e-09
-1.44771e-08
-7.87771e-09
-1.14728e-08
-7.45351e-09
-8.68988e-09
-6.87291e-09
-6.19121e-09
-6.11526e-09
-4.04217e-09
-5.16967e-09
-2.30535e-09
-4.04462e-09
-1.03322e-09
-2.78126e-09
-2.60278e-10
-1.47414e-09
-3.21388e-10
-3.56744e-10
7.38574e-10
-1.36537e-09
2.40645e-09
-2.9484e-09
4.24336e-09
-5.04733e-09
6.00454e-09
-7.59701e-09
7.56485e-09
-1.05267e-08
8.87516e-09
-1.37654e-08
9.92684e-09
-1.72453e-08
1.07353e-08
-2.09058e-08
1.13289e-08
-2.4694e-08
1.17405e-08
-2.85661e-08
1.20032e-08
-3.24859e-08
1.21474e-08
-3.64247e-08
1.21989e-08
-4.03597e-08
1.21791e-08
-4.42732e-08
1.21045e-08
-4.81512e-08
1.19881e-08
-5.1983e-08
1.18392e-08
-5.57597e-08
1.16645e-08
-5.94742e-08
1.1469e-08
-6.31203e-08
1.12558e-08
-6.66929e-08
1.10274e-08
-7.01873e-08
1.07851e-08
-7.35992e-08
1.05302e-08
-7.69245e-08
1.02633e-08
-8.01595e-08
9.98505e-09
-8.33005e-08
9.69584e-09
-8.63441e-08
9.39609e-09
-8.92868e-08
9.08612e-09
-9.21255e-08
8.76627e-09
-9.48569e-08
8.43685e-09
-9.74783e-08
8.09821e-09
-9.99865e-08
7.75069e-09
-1.02379e-07
7.39465e-09
-1.04653e-07
7.03047e-09
-1.06806e-07
6.65852e-09
-1.08836e-07
6.27919e-09
-1.10741e-07
5.89287e-09
-1.12517e-07
5.49997e-09
-1.14164e-07
5.10089e-09
-1.1568e-07
4.69602e-09
-1.17063e-07
4.28577e-09
-1.1831e-07
3.87052e-09
-1.19422e-07
3.45068e-09
-1.20396e-07
3.02667e-09
-1.21231e-07
2.5989e-09
-1.21927e-07
2.16778e-09
-1.22482e-07
1.73374e-09
-1.22896e-07
1.29718e-09
-1.23167e-07
8.58541e-10
-1.23296e-07
4.18247e-10
-1.23282e-07
-2.32628e-11
-1.23125e-07
-4.65546e-10
-1.22824e-07
-9.08158e-10
-1.22381e-07
-1.35065e-09
-1.21795e-07
-1.79257e-09
-1.21066e-07
-2.23346e-09
-1.20195e-07
-2.67285e-09
-1.19182e-07
-3.11025e-09
-1.18029e-07
-3.54517e-09
-1.16737e-07
-3.97713e-09
-1.15306e-07
-4.40561e-09
-1.13739e-07
-4.8301e-09
-1.12035e-07
-5.2501e-09
-1.10198e-07
-5.66508e-09
-1.08229e-07
-6.07453e-09
-1.06129e-07
-6.47795e-09
-1.03901e-07
-6.87481e-09
-1.01547e-07
-7.26461e-09
-9.90702e-08
-7.64688e-09
-9.64722e-08
-8.0211e-09
-9.37561e-08
-8.38681e-09
-9.09248e-08
-8.74353e-09
-8.79814e-08
-9.09079e-09
-8.49291e-08
-9.42812e-09
-8.17714e-08
-9.75506e-09
-7.85117e-08
-1.00711e-08
-7.51539e-08
-1.03758e-08
-7.17019e-08
-1.06685e-08
-6.81599e-08
-1.09484e-08
-6.45327e-08
-1.12148e-08
-6.08252e-08
-1.14662e-08
-5.7043e-08
-1.1701e-08
-5.31929e-08
-1.19165e-08
-4.92824e-08
-1.21092e-08
-4.53212e-08
-1.22738e-08
-4.13209e-08
-1.24033e-08
-3.72963e-08
-1.24876e-08
-3.32661e-08
-1.25136e-08
-2.92542e-08
-1.24641e-08
-2.52906e-08
-1.23176e-08
-2.14124e-08
-1.2048e-08
-1.76649e-08
-1.16252e-08
-1.41021e-08
-1.10164e-08
-1.07858e-08
-1.01892e-08
-7.78477e-09
-9.11629e-09
-5.17175e-09
-7.78269e-09
-3.01986e-09
-6.19649e-09
-1.39861e-09
-4.40254e-09
-3.71206e-10
-2.50154e-09
-6.92599e-10
-4.4257e-10
1.18114e-09
-1.66027e-09
3.62416e-09
-3.53913e-09
6.12222e-09
-5.99097e-09
8.45638e-09
-8.93256e-09
1.05064e-08
-1.22823e-08
1.22249e-08
-1.5962e-08
1.36066e-08
-1.98994e-08
1.46728e-08
-2.403e-08
1.54594e-08
-2.82977e-08
1.60082e-08
-3.26557e-08
1.63612e-08
-3.70654e-08
1.65571e-08
-4.14958e-08
1.66293e-08
-4.5922e-08
1.66053e-08
-5.03245e-08
1.65071e-08
-5.46878e-08
1.63515e-08
-5.89997e-08
1.61511e-08
-6.32502e-08
1.5915e-08
-6.74311e-08
1.56499e-08
-7.15354e-08
1.53602e-08
-7.55572e-08
1.50491e-08
-7.94909e-08
1.47189e-08
-8.33318e-08
1.4371e-08
-8.7075e-08
1.40066e-08
-9.07165e-08
1.36265e-08
-9.42519e-08
1.32313e-08
-9.76773e-08
1.28215e-08
-1.00989e-07
1.23978e-08
-1.04183e-07
1.19605e-08
-1.07257e-07
1.15102e-08
-1.10206e-07
1.10473e-08
-1.13027e-07
1.05722e-08
-1.15718e-07
1.00856e-08
-1.18276e-07
9.58788e-09
-1.20697e-07
9.07959e-09
-1.22979e-07
8.56127e-09
-1.25119e-07
8.03345e-09
-1.27116e-07
7.4967e-09
-1.28967e-07
6.95156e-09
-1.30669e-07
6.39857e-09
-1.32222e-07
5.83829e-09
-1.33623e-07
5.27125e-09
-1.3487e-07
4.69802e-09
-1.35962e-07
4.11916e-09
-1.36899e-07
3.53524e-09
-1.37678e-07
2.94681e-09
-1.38298e-07
2.35445e-09
-1.3876e-07
1.75872e-09
-1.39062e-07
1.16021e-09
-1.39203e-07
5.59506e-10
-1.39183e-07
-4.27894e-11
-1.39003e-07
-6.4608e-10
-1.38661e-07
-1.24976e-09
-1.38159e-07
-1.85322e-09
-1.37495e-07
-2.45584e-09
-1.36672e-07
-3.05698e-09
-1.35689e-07
-3.65601e-09
-1.34547e-07
-4.25227e-09
-1.33247e-07
-4.8451e-09
-1.3179e-07
-5.43383e-09
-1.30178e-07
-6.01779e-09
-1.28412e-07
-6.59629e-09
-1.26493e-07
-7.16864e-09
-1.24424e-07
-7.73415e-09
-1.22207e-07
-8.29213e-09
-1.19843e-07
-8.84187e-09
-1.17335e-07
-9.3827e-09
-1.14685e-07
-9.91394e-09
-1.11897e-07
-1.04349e-08
-1.08974e-07
-1.09449e-08
-1.05917e-07
-1.14433e-08
-1.02731e-07
-1.19294e-08
-9.94193e-08
-1.24027e-08
-9.59851e-08
-1.28623e-08
-9.24324e-08
-1.33077e-08
-8.87653e-08
-1.37382e-08
-8.49881e-08
-1.4153e-08
-8.11052e-08
-1.45513e-08
-7.71216e-08
-1.49321e-08
-7.30424e-08
-1.52939e-08
-6.88735e-08
-1.56351e-08
-6.46214e-08
-1.59531e-08
-6.02936e-08
-1.62443e-08
-5.58989e-08
-1.65039e-08
-5.14479e-08
-1.67248e-08
-4.69539e-08
-1.68973e-08
-4.24333e-08
-1.70083e-08
-3.79065e-08
-1.70403e-08
-3.33995e-08
-1.69711e-08
-2.89446e-08
-1.67725e-08
-2.45816e-08
-1.64111e-08
-2.03585e-08
-1.58482e-08
-1.63325e-08
-1.50423e-08
-1.25694e-08
-1.39523e-08
-9.14285e-09
-1.25429e-08
-6.13283e-09
-1.07927e-08
-3.62365e-09
-8.70566e-09
-1.70256e-09
-6.32364e-09
-4.60405e-10
-3.7437e-09
-1.15301e-09
-5.11053e-10
1.6922e-09
-1.89905e-09
5.01215e-09
-4.02317e-09
8.24634e-09
-6.77052e-09
1.12037e-08
-1.00409e-08
1.37768e-08
-1.37418e-08
1.59257e-08
-1.77879e-08
1.76527e-08
-2.21026e-08
1.89875e-08
-2.66181e-08
1.99748e-08
-3.12762e-08
2.06663e-08
-3.6028e-08
2.11131e-08
-4.08334e-08
2.13625e-08
-4.56597e-08
2.14556e-08
-5.04809e-08
2.14265e-08
-5.52762e-08
2.13024e-08
-6.0029e-08
2.11043e-08
-6.47261e-08
2.08481e-08
-6.93567e-08
2.05455e-08
-7.39116e-08
2.02048e-08
-7.83834e-08
1.98319e-08
-8.27653e-08
1.9431e-08
-8.70514e-08
1.90049e-08
-9.12361e-08
1.85558e-08
-9.53145e-08
1.8085e-08
-9.92817e-08
1.75937e-08
-1.03133e-07
1.70828e-08
-1.06865e-07
1.6553e-08
-1.10472e-07
1.60051e-08
-1.13951e-07
1.54396e-08
-1.17298e-07
1.48573e-08
-1.2051e-07
1.42587e-08
-1.23582e-07
1.36445e-08
-1.26511e-07
1.30153e-08
-1.29295e-07
1.23719e-08
-1.31931e-07
1.17148e-08
-1.34414e-07
1.10449e-08
-1.36744e-07
1.03627e-08
-1.38916e-07
9.6691e-09
-1.40929e-07
8.96468e-09
-1.42781e-07
8.2502e-09
-1.44469e-07
7.52636e-09
-1.45991e-07
6.79386e-09
-1.47347e-07
6.05345e-09
-1.48533e-07
5.30584e-09
-1.4955e-07
4.55176e-09
-1.50395e-07
3.79194e-09
-1.51068e-07
3.02711e-09
-1.51567e-07
2.258e-09
-1.51892e-07
1.48539e-09
-1.52043e-07
7.1001e-10
-1.52018e-07
-6.73543e-11
-1.51818e-07
-8.45935e-10
-1.51443e-07
-1.62495e-09
-1.50893e-07
-2.40362e-09
-1.50167e-07
-3.18113e-09
-1.49268e-07
-3.95667e-09
-1.48194e-07
-4.72942e-09
-1.46948e-07
-5.49854e-09
-1.4553e-07
-6.26318e-09
-1.43941e-07
-7.02249e-09
-1.42184e-07
-7.77561e-09
-1.40258e-07
-8.52166e-09
-1.38167e-07
-9.25977e-09
-1.35912e-07
-9.98905e-09
-1.33496e-07
-1.07086e-08
-1.3092e-07
-1.14176e-08
-1.28188e-07
-1.2115e-08
-1.25301e-07
-1.28001e-08
-1.22264e-07
-1.3472e-08
-1.19079e-07
-1.41297e-08
-1.1575e-07
-1.47725e-08
-1.1228e-07
-1.53995e-08
-1.08673e-07
-1.60097e-08
-1.04933e-07
-1.66024e-08
-1.01064e-07
-1.71767e-08
-9.70708e-08
-1.77316e-08
-9.29576e-08
-1.82662e-08
-8.87297e-08
-1.87792e-08
-8.43924e-08
-1.92694e-08
-7.99514e-08
-1.97349e-08
-7.54132e-08
-2.01733e-08
-7.07848e-08
-2.05814e-08
-6.60746e-08
-2.09546e-08
-6.1292e-08
-2.12864e-08
-5.64488e-08
-2.1568e-08
-5.15591e-08
-2.1787e-08
-4.66402e-08
-2.19271e-08
-4.17142e-08
-2.19664e-08
-3.6808e-08
-2.18772e-08
-3.19556e-08
-2.1625e-08
-2.71983e-08
-2.11684e-08
-2.25862e-08
-2.04603e-08
-1.81787e-08
-1.94498e-08
-1.4045e-08
-1.8086e-08
-1.02635e-08
-1.63244e-08
-6.92127e-09
-1.41349e-08
-4.1138e-09
-1.15131e-08
-1.94491e-09
-8.49252e-09
-5.29222e-10
-5.1594e-09
-1.68223e-09
-5.63791e-10
2.25599e-09
-2.0866e-09
6.53495e-09
-4.40851e-09
1.05682e-08
-7.39753e-09
1.41928e-08
-1.09387e-08
1.7318e-08
-1.49292e-08
1.99162e-08
-1.9277e-08
2.20005e-08
-2.39008e-08
2.36113e-08
-2.87302e-08
2.48042e-08
-3.3705e-08
2.56411e-08
-3.8775e-08
2.6183e-08
-4.38987e-08
2.64862e-08
-4.90427e-08
2.65997e-08
-5.41802e-08
2.65639e-08
-5.92894e-08
2.64116e-08
-6.43532e-08
2.61681e-08
-6.93576e-08
2.58526e-08
-7.42912e-08
2.54791e-08
-7.91444e-08
2.5058e-08
-8.3909e-08
2.45965e-08
-8.85779e-08
2.40999e-08
-9.31446e-08
2.35717e-08
-9.76033e-08
2.30145e-08
-1.01949e-07
2.24302e-08
-1.06175e-07
2.18203e-08
-1.10278e-07
2.11859e-08
-1.14253e-07
2.0528e-08
-1.18096e-07
1.98476e-08
-1.21802e-07
1.91453e-08
-1.25366e-07
1.84221e-08
-1.28786e-07
1.76787e-08
-1.32058e-07
1.6916e-08
-1.35177e-07
1.61348e-08
-1.38141e-07
1.53359e-08
-1.40947e-07
1.45202e-08
-1.4359e-07
1.36885e-08
-1.46069e-07
1.28418e-08
-1.48381e-07
1.19809e-08
-1.50523e-07
1.11067e-08
-1.52493e-07
1.022e-08
-1.54288e-07
9.32184e-09
-1.55907e-07
8.41302e-09
-1.57348e-07
7.49445e-09
-1.5861e-07
6.56704e-09
-1.5969e-07
5.63167e-09
-1.60587e-07
4.68926e-09
-1.613e-07
3.74072e-09
-1.61829e-07
2.78697e-09
-1.62173e-07
1.82893e-09
-1.62331e-07
8.67556e-10
-1.62302e-07
-9.6212e-11
-1.62086e-07
-1.06142e-09
-1.61684e-07
-2.02709e-09
-1.61095e-07
-2.99226e-09
-1.60321e-07
-3.95593e-09
-1.5936e-07
-4.9171e-09
-1.58215e-07
-5.87474e-09
-1.56886e-07
-6.82782e-09
-1.55373e-07
-7.77532e-09
-1.5368e-07
-8.71617e-09
-1.51806e-07
-9.64931e-09
-1.49754e-07
-1.05737e-08
-1.47526e-07
-1.14882e-08
-1.45123e-07
-1.23918e-08
-1.42548e-07
-1.32833e-08
-1.39804e-07
-1.41617e-08
-1.36893e-07
-1.50259e-08
-1.33819e-07
-1.58748e-08
-1.30583e-07
-1.67072e-08
-1.27191e-07
-1.75222e-08
-1.23645e-07
-1.83187e-08
-1.19948e-07
-1.90955e-08
-1.16107e-07
-1.98516e-08
-1.12123e-07
-2.0586e-08
-1.08002e-07
-2.12974e-08
-1.03749e-07
-2.19847e-08
-9.93687e-08
-2.26467e-08
-9.48661e-08
-2.32818e-08
-9.02472e-08
-2.38883e-08
-8.55181e-08
-2.4464e-08
-8.06858e-08
-2.50057e-08
-7.57577e-08
-2.55095e-08
-7.07428e-08
-2.59695e-08
-6.56511e-08
-2.63781e-08
-6.04949e-08
-2.67242e-08
-5.5289e-08
-2.6993e-08
-5.00516e-08
-2.71645e-08
-4.48052e-08
-2.72128e-08
-3.9578e-08
-2.71045e-08
-3.44045e-08
-2.67984e-08
-2.93274e-08
-2.62455e-08
-2.43983e-08
-2.53895e-08
-1.96785e-08
-2.41695e-08
-1.52402e-08
-2.25243e-08
-1.11665e-08
-2.03981e-08
-7.55144e-09
-1.775e-08
-4.50075e-09
-1.45638e-08
-2.13273e-09
-1.08605e-08
-5.80881e-10
-6.71125e-09
-2.2631e-09
-6.03378e-10
2.85937e-09
-2.23073e-09
8.1623e-09
-4.70926e-09
1.30468e-08
-7.89266e-09
1.73762e-08
-1.16538e-08
2.10792e-08
-1.58808e-08
2.41432e-08
-2.04753e-08
2.6595e-08
-2.53517e-08
2.84878e-08
-3.04368e-08
2.98893e-08
-3.56686e-08
3.08729e-08
-4.09957e-08
3.15101e-08
-4.6376e-08
3.18665e-08
-5.17752e-08
3.19989e-08
-5.7166e-08
3.19547e-08
-6.25264e-08
3.17719e-08
-6.78385e-08
3.14802e-08
-7.3088e-08
3.11021e-08
-7.82631e-08
3.06542e-08
-8.33538e-08
3.01487e-08
-8.83516e-08
2.95943e-08
-9.32488e-08
2.89972e-08
-9.80389e-08
2.83617e-08
-1.02715e-07
2.76911e-08
-1.07273e-07
2.69876e-08
-1.11706e-07
2.62532e-08
-1.16009e-07
2.54891e-08
-1.20178e-07
2.46966e-08
-1.24207e-07
2.38769e-08
-1.28093e-07
2.30309e-08
-1.3183e-07
2.21597e-08
-1.35416e-07
2.12643e-08
-1.38845e-07
2.03456e-08
-1.42115e-07
1.94048e-08
-1.45222e-07
1.84427e-08
-1.48162e-07
1.74604e-08
-1.50933e-07
1.6459e-08
-1.53531e-07
1.54396e-08
-1.55953e-07
1.44031e-08
-1.58197e-07
1.33507e-08
-1.6026e-07
1.22835e-08
-1.62141e-07
1.12024e-08
-1.63837e-07
1.01086e-08
-1.65345e-07
9.0032e-09
-1.66666e-07
7.88722e-09
-1.67796e-07
6.76175e-09
-1.68734e-07
5.62789e-09
-1.6948e-07
4.48674e-09
-1.70033e-07
3.3394e-09
-1.70391e-07
2.187e-09
-1.70554e-07
1.03066e-09
-1.70522e-07
-1.2848e-10
-1.70294e-07
-1.28928e-09
-1.6987e-07
-2.45057e-09
-1.69251e-07
-3.61118e-09
-1.68437e-07
-4.76993e-09
-1.67429e-07
-5.92561e-09
-1.66227e-07
-7.07699e-09
-1.64832e-07
-8.22285e-09
-1.63245e-07
-9.36195e-09
-1.61468e-07
-1.0493e-08
-1.59503e-07
-1.16148e-08
-1.5735e-07
-1.27261e-08
-1.55013e-07
-1.38255e-08
-1.52493e-07
-1.49117e-08
-1.49793e-07
-1.59835e-08
-1.46915e-07
-1.70395e-08
-1.43863e-07
-1.80784e-08
-1.40638e-07
-1.90989e-08
-1.37246e-07
-2.00998e-08
-1.33688e-07
-2.10796e-08
-1.2997e-07
-2.20372e-08
-1.26094e-07
-2.29712e-08
-1.22066e-07
-2.38802e-08
-1.17889e-07
-2.4763e-08
-1.13568e-07
-2.56182e-08
-1.09108e-07
-2.64443e-08
-1.04515e-07
-2.72398e-08
-9.9794e-08
-2.80029e-08
-9.4951e-08
-2.87313e-08
-8.99926e-08
-2.94223e-08
-8.4926e-08
-3.00723e-08
-7.97591e-08
-3.06763e-08
-7.45012e-08
-3.12275e-08
-6.91628e-08
-3.17165e-08
-6.37564e-08
-3.21305e-08
-5.82975e-08
-3.24519e-08
-5.28045e-08
-3.26575e-08
-4.73006e-08
-3.27167e-08
-4.18144e-08
-3.25907e-08
-3.63812e-08
-3.22316e-08
-3.10444e-08
-3.15823e-08
-2.58569e-08
-3.0577e-08
-2.08821e-08
-2.91444e-08
-1.61949e-08
-2.72114e-08
-1.18829e-08
-2.47102e-08
-8.04661e-09
-2.15862e-08
-4.80082e-09
-1.78096e-08
-2.27569e-09
-1.33857e-08
-6.18996e-10
-8.36794e-09
-2.8821e-09
-6.32615e-10
3.49198e-09
-2.34014e-09
9.86982e-09
-4.94146e-09
1.56481e-08
-8.27989e-09
2.07146e-08
-1.22186e-08
2.50179e-08
-1.66381e-08
2.85626e-08
-2.14341e-08
3.13911e-08
-2.65172e-08
3.35709e-08
-3.18114e-08
3.51835e-08
-3.7253e-08
3.63145e-08
-4.27894e-08
3.70465e-08
-4.83779e-08
3.74549e-08
-5.39837e-08
3.76047e-08
-5.95791e-08
3.75501e-08
-6.51417e-08
3.73346e-08
-7.06535e-08
3.69921e-08
-7.60999e-08
3.65485e-08
-8.14688e-08
3.60231e-08
-8.67499e-08
3.54298e-08
-9.19344e-08
3.47788e-08
-9.70145e-08
3.40773e-08
-1.01983e-07
3.33304e-08
-1.06834e-07
3.2542e-08
-1.11561e-07
3.17148e-08
-1.16159e-07
3.08509e-08
-1.20622e-07
2.99521e-08
-1.24945e-07
2.90199e-08
-1.29124e-07
2.80555e-08
-1.33153e-07
2.70603e-08
-1.37029e-07
2.60354e-08
-1.40747e-07
2.49821e-08
-1.44303e-07
2.39015e-08
-1.47693e-07
2.27949e-08
-1.50914e-07
2.16634e-08
-1.53961e-07
2.05082e-08
-1.56833e-07
1.93307e-08
-1.59526e-07
1.8132e-08
-1.62036e-07
1.69134e-08
-1.64361e-07
1.56762e-08
-1.66499e-07
1.44216e-08
-1.68448e-07
1.31508e-08
-1.70204e-07
1.18652e-08
-1.71767e-07
1.0566e-08
-1.73134e-07
9.25448e-09
-1.74305e-07
7.9319e-09
-1.75276e-07
6.59955e-09
-1.76048e-07
5.25872e-09
-1.7662e-07
3.91071e-09
-1.76989e-07
2.55684e-09
-1.77157e-07
1.19841e-09
-1.77122e-07
-1.63227e-10
-1.76885e-07
-1.52674e-09
-1.76445e-07
-2.89077e-09
-1.75802e-07
-4.25393e-09
-1.74957e-07
-5.61485e-09
-1.73911e-07
-6.9721e-09
-1.72663e-07
-8.32427e-09
-1.71216e-07
-9.66993e-09
-1.69571e-07
-1.10076e-08
-1.67728e-07
-1.23359e-08
-1.65689e-07
-1.36532e-08
-1.63457e-07
-1.49582e-08
-1.61033e-07
-1.62492e-08
-1.5842e-07
-1.75248e-08
-1.5562e-07
-1.87834e-08
-1.52636e-07
-2.00236e-08
-1.49471e-07
-2.12437e-08
-1.46128e-07
-2.24423e-08
-1.4261e-07
-2.36177e-08
-1.38921e-07
-2.47686e-08
-1.35065e-07
-2.58932e-08
-1.31046e-07
-2.69902e-08
-1.26868e-07
-2.80579e-08
-1.22536e-07
-2.90947e-08
-1.18055e-07
-3.00991e-08
-1.13431e-07
-3.10692e-08
-1.08667e-07
-3.20033e-08
-1.03771e-07
-3.2899e-08
-9.87485e-08
-3.37539e-08
-9.36061e-08
-3.45647e-08
-8.83515e-08
-3.53269e-08
-8.29928e-08
-3.6035e-08
-7.75395e-08
-3.66808e-08
-7.20024e-08
-3.72536e-08
-6.63943e-08
-3.77385e-08
-6.07309e-08
-3.81153e-08
-5.50311e-08
-3.83573e-08
-4.93181e-08
-3.84296e-08
-4.36211e-08
-3.82877e-08
-3.79759e-08
-3.78768e-08
-3.24268e-08
-3.71314e-08
-2.70276e-08
-3.59761e-08
-2.18439e-08
-3.43282e-08
-1.69533e-08
-3.2102e-08
-1.24475e-08
-2.9216e-08
-8.43285e-09
-2.56009e-08
-5.03174e-09
-2.12107e-08
-2.38371e-09
-1.60337e-08
-6.46951e-10
-1.01047e-08
-3.52906e-09
-6.54221e-10
4.1462e-09
-2.42326e-09
1.16389e-08
-5.12091e-09
1.83457e-08
-8.5831e-09
2.41768e-08
-1.26656e-08
2.91004e-08
-1.72422e-08
3.31393e-08
-2.2204e-08
3.63529e-08
-2.74578e-08
3.88246e-08
-3.29248e-08
4.06505e-08
-3.85398e-08
4.19294e-08
-4.4249e-08
4.27558e-08
-5.0009e-08
4.32149e-08
-5.57847e-08
4.33804e-08
-6.15479e-08
4.33133e-08
-6.72762e-08
4.30628e-08
-7.29513e-08
4.26672e-08
-7.85584e-08
4.21556e-08
-8.40852e-08
4.15499e-08
-8.95213e-08
4.08659e-08
-9.48577e-08
4.01152e-08
-1.00086e-07
3.9306e-08
-1.052e-07
3.84443e-08
-1.10193e-07
3.75345e-08
-1.15058e-07
3.65797e-08
-1.19789e-07
3.55824e-08
-1.24382e-07
3.45448e-08
-1.28831e-07
3.34685e-08
-1.3313e-07
3.23551e-08
-1.37276e-07
3.12061e-08
-1.41263e-07
3.00229e-08
-1.45088e-07
2.8807e-08
-1.48746e-07
2.75596e-08
-1.52234e-07
2.62822e-08
-1.55547e-07
2.49763e-08
-1.58682e-07
2.36431e-08
-1.61635e-07
2.22843e-08
-1.64404e-07
2.09011e-08
-1.66986e-07
1.9495e-08
-1.69377e-07
1.80676e-08
-1.71576e-07
1.66202e-08
-1.73579e-07
1.51542e-08
-1.75385e-07
1.36713e-08
-1.76992e-07
1.21727e-08
-1.78397e-07
1.066e-08
-1.796e-07
9.1347e-09
-1.80599e-07
7.5982e-09
-1.81392e-07
6.05201e-09
-1.81979e-07
4.49762e-09
-1.82359e-07
2.93656e-09
-1.82531e-07
1.37034e-09
-1.82494e-07
-1.9953e-10
-1.8225e-07
-1.77149e-09
-1.81796e-07
-3.34397e-09
-1.81135e-07
-4.91542e-09
-1.80266e-07
-6.48421e-09
-1.79189e-07
-8.04875e-09
-1.77906e-07
-9.6074e-09
-1.76417e-07
-1.11585e-08
-1.74724e-07
-1.27004e-08
-1.72829e-07
-1.42315e-08
-1.70732e-07
-1.575e-08
-1.68436e-07
-1.72542e-08
-1.65943e-07
-1.87424e-08
-1.63255e-07
-2.02128e-08
-1.60375e-07
-2.16637e-08
-1.57305e-07
-2.30933e-08
-1.54049e-07
-2.44999e-08
-1.50609e-07
-2.58817e-08
-1.4699e-07
-2.7237e-08
-1.43195e-07
-2.85638e-08
-1.39227e-07
-2.98606e-08
-1.35092e-07
-3.11253e-08
-1.30794e-07
-3.23564e-08
-1.26336e-07
-3.35519e-08
-1.21726e-07
-3.47099e-08
-1.16966e-07
-3.58283e-08
-1.12065e-07
-3.69051e-08
-1.07026e-07
-3.79376e-08
-1.01857e-07
-3.89229e-08
-9.65647e-08
-3.9857e-08
-9.11566e-08
-4.07351e-08
-8.56411e-08
-4.15505e-08
-8.00278e-08
-4.22941e-08
-7.43278e-08
-4.29536e-08
-6.85541e-08
-4.35122e-08
-6.27225e-08
-4.3947e-08
-5.6852e-08
-4.42278e-08
-5.09664e-08
-4.43152e-08
-4.50949e-08
-4.41592e-08
-3.92739e-08
-4.36978e-08
-3.35485e-08
-4.28569e-08
-2.79739e-08
-4.15507e-08
-2.26172e-08
-3.96849e-08
-1.75589e-08
-3.71603e-08
-1.28946e-08
-3.38804e-08
-8.73549e-09
-2.97599e-08
-5.21034e-09
-2.47359e-08
-2.46586e-09
-1.87782e-08
-6.67655e-10
-1.19029e-08
-4.1967e-09
-6.70592e-10
4.81679e-09
-2.48752e-09
1.34558e-08
-5.26177e-09
2.112e-08
-8.82399e-09
2.7739e-08
-1.30243e-08
3.33007e-08
-1.77312e-08
3.78463e-08
-2.28315e-08
4.14532e-08
-2.82286e-08
4.42216e-08
-3.38413e-08
4.62632e-08
-3.96026e-08
4.76908e-08
-4.54578e-08
4.8611e-08
-5.13626e-08
4.91197e-08
-5.72814e-08
4.92992e-08
-6.31859e-08
4.92178e-08
-6.90533e-08
4.89302e-08
-7.48653e-08
4.84792e-08
-8.0607e-08
4.78973e-08
-8.62659e-08
4.72088e-08
-9.18315e-08
4.64315e-08
-9.72947e-08
4.55784e-08
-1.02647e-07
4.46587e-08
-1.07882e-07
4.36792e-08
-1.12993e-07
4.26448e-08
-1.17972e-07
4.15592e-08
-1.22815e-07
4.04252e-08
-1.27515e-07
3.92452e-08
-1.32068e-07
3.80213e-08
-1.36468e-07
3.67552e-08
-1.40711e-07
3.54486e-08
-1.44791e-07
3.41033e-08
-1.48705e-07
3.27207e-08
-1.52447e-07
3.13025e-08
-1.56016e-07
2.98503e-08
-1.59405e-07
2.83657e-08
-1.62612e-07
2.68503e-08
-1.65634e-07
2.53058e-08
-1.68466e-07
2.37337e-08
-1.71107e-07
2.21358e-08
-1.73553e-07
2.05137e-08
-1.75802e-07
1.8869e-08
-1.77851e-07
1.72034e-08
-1.79698e-07
1.55185e-08
-1.81342e-07
1.3816e-08
-1.82779e-07
1.20976e-08
-1.8401e-07
1.03649e-08
-1.85031e-07
8.61959e-09
-1.85842e-07
6.86338e-09
-1.86443e-07
5.09795e-09
-1.86831e-07
3.32501e-09
-1.87007e-07
1.54628e-09
-1.8697e-07
-2.36515e-10
-1.8672e-07
-2.02163e-09
-1.86257e-07
-3.80729e-09
-1.8558e-07
-5.59172e-09
-1.84691e-07
-7.37311e-09
-1.8359e-07
-9.14964e-09
-1.82278e-07