/*--------------------------------*- C++ -*----------------------------------*\
| =========                 |                                                 |
| \\      /  F ield         | OpenFOAM: The Open Source CFD Toolbox           |
|  \\    /   O peration     | Version:  2512                                  |
|   \\  /    A nd           | Website:  www.openfoam.com                      |
|    \\/     M anipulation  |                                                 |
\*---------------------------------------------------------------------------*/
FoamFile
{
    version     2.0;
    format      ascii;
    arch        "LSB;label=32;scalar=64";
    class       volScalarField;
    location    "0.04";
    object      p;
}
// * * * * * * * * * * * * * * * * * * * * * * * * * * * * * * * * * * * * * //

dimensions      [0 2 -2 0 0 0 0];

internalField   nonuniform List<scalar> 
10000
(
-1.38235e-09
-8.52963e-05
-0.000227239
-0.000379441
-0.000519611
-0.000647999
-0.000762582
-0.000861517
-0.000943405
-0.00100738
-0.00105305
-0.00108028
-0.00108897
-0.00107913
-0.00105094
-0.00100485
-0.000941432
-0.000861206
-0.000764575
-0.000651873
-0.000523488
-0.000379903
-0.000221638
-4.91586e-05
0.000137156
0.000336961
0.000549877
0.000775492
0.0010134
0.0012632
0.00152453
0.001797
0.00208021
0.00237375
0.00267725
0.00299028
0.0033124
0.00364317
0.00398213
0.00432881
0.00468276
0.00504346
0.00541041
0.00578306
0.00616084
0.00654323
0.00692965
0.00731953
0.00771227
0.00810725
0.00850387
0.00890153
0.00929966
0.00969765
0.0100949
0.0104908
0.0108847
0.0112761
0.0116644
0.0120489
0.0124291
0.0128044
0.0131741
0.0135377
0.0138945
0.014244
0.0145854
0.0149183
0.015242
0.0155559
0.0158594
0.0161519
0.0164328
0.0167015
0.0169574
0.0172001
0.0174289
0.0176433
0.0178427
0.0180267
0.0181946
0.018346
0.0184803
0.0185973
0.0186963
0.0187771
0.0188394
0.018883
0.0189079
0.0189144
0.0189028
0.0188741
0.0188298
0.018772
0.0187038
0.0186294
0.0185548
0.0184881
0.0184403
0.0184211
-4.8395e-05
-0.000128842
-0.000241921
-0.000362922
-0.000479217
-0.000587137
-0.000684254
-0.000768535
-0.0008384
-0.000892663
-0.000930549
-0.000951682
-0.000955891
-0.000943065
-0.000913165
-0.000866311
-0.000802816
-0.000723091
-0.00062752
-0.000516414
-0.000390079
-0.000248885
-9.32466e-05
7.64245e-05
0.000259742
0.000456337
0.000665843
0.000887889
0.0011221
0.00136811
0.00162552
0.00189394
0.00217297
0.00246223
0.00276134
0.00306988
0.00338741
0.00371349
0.00404767
0.00438949
0.00473848
0.00509415
0.00545598
0.00582342
0.00619594
0.006573
0.00695404
0.00733849
0.00772574
0.00811519
0.00850625
0.00889833
0.00929086
0.00968324
0.0100749
0.0104652
0.0108535
0.0112393
0.011622
0.012001
0.0123757
0.0127455
0.0131099
0.0134681
0.0138196
0.0141638
0.0145001
0.014828
0.0151467
0.0154557
0.0157545
0.0160423
0.0163187
0.016583
0.0168348
0.0170734
0.0172985
0.0175093
0.0177055
0.0178866
0.0180519
0.0182012
0.018334
0.01845
0.0185488
0.0186303
0.0186942
0.0187406
0.0187697
0.0187819
0.0187777
0.0187585
0.0187255
0.0186811
0.0186281
0.0185702
0.0185122
0.0184602
0.0184214
0.0184022
-9.83218e-05
-0.000166508
-0.000255096
-0.000353278
-0.00045139
-0.0005441
-0.000628159
-0.000701329
-0.000761915
-0.00080856
-0.00084025
-0.000856386
-0.000856696
-0.000841057
-0.000809362
-0.000761548
-0.000697719
-0.000618142
-0.000523138
-0.000413017
-0.000288072
-0.000148606
5.06534e-06
0.000172599
0.000353627
0.000547763
0.000754638
0.000973914
0.00120526
0.0014483
0.00170266
0.00196792
0.00224371
0.00252965
0.00282537
0.00313044
0.00344441
0.00376686
0.00409734
0.0044354
0.00478055
0.00513232
0.00549017
0.00585357
0.006222
0.00659493
0.00697178
0.007352
0.00773498
0.00812013
0.00850689
0.00889467
0.0092829
0.00967099
0.0100583
0.0104443
0.0108284
0.01121
0.0115885
0.0119634
0.012334
0.0126997
0.01306
0.0134142
0.0137617
0.014102
0.0144344
0.0147584
0.0150733
0.0153786
0.0156738
0.0159581
0.016231
0.0164921
0.0167407
0.0169765
0.0171987
0.0174071
0.0176009
0.0177799
0.0179436
0.0180915
0.0182234
0.0183389
0.0184379
0.0185201
0.0185855
0.0186343
0.0186667
0.0186831
0.0186844
0.0186717
0.0186465
0.0186107
0.0185669
0.0185182
0.0184684
0.0184221
0.0183832
0.0183551
-0.000121272
-0.000185781
-0.000262422
-0.000346343
-0.000431895
-0.000513677
-0.000588104
-0.000652796
-0.000706031
-0.000746493
-0.000773132
-0.000785164
-0.000782146
-0.000763887
-0.00073029
-0.000681297
-0.000616919
-0.000537266
-0.000442536
-0.000333002
-0.000208969
-7.07217e-05
8.1481e-05
0.000247357
0.000426571
0.000618758
0.000823563
0.00104066
0.00126973
0.00151042
0.00176233
0.00202509
0.00229831
0.00258164
0.00287468
0.003177
0.00348817
0.00380775
0.00413531
0.0044704
0.00481253
0.00516119
0.00551588
0.00587607
0.00624125
0.00661088
0.00698441
0.00736126
0.00774085
0.00812261
0.00850597
0.00889038
0.00927525
0.00966001
0.010044
0.0104268
0.0108076
0.011186
0.0115613
0.011933
0.0123005
0.0126631
0.0130203
0.0133714
0.0137159
0.0140532
0.0143826
0.0147037
0.0150157
0.0153182
0.0156106
0.0158922
0.0161625
0.0164211
0.0166674
0.016901
0.0171212
0.0173277
0.01752
0.0176976
0.0178602
0.0180073
0.0181387
0.0182541
0.0183534
0.0184364
0.0185032
0.0185539
0.0185888
0.0186085
0.0186136
0.0186053
0.0185849
0.0185542
0.0185153
0.0184707
0.0184235
0.018377
0.0183322
0.0182894
-0.000115553
-0.000187861
-0.000262184
-0.000338711
-0.000416078
-0.000489944
-0.000557002
-0.000614931
-0.000662038
-0.00069711
-0.000719202
-0.000727539
-0.00072155
-0.000700889
-0.000665415
-0.000615109
-0.000549974
-0.000470041
-0.00037542
-0.00026631
-0.000142967
-5.65218e-06
0.000145387
0.00030989
0.000487556
0.000678061
0.000881092
0.00109634
0.00132347
0.00156213
0.00181194
0.00207255
0.00234358
0.00262468
0.00291544
0.00321542
0.0035242
0.00384134
0.00416641
0.00449897
0.0048385
0.00518452
0.0055365
0.00589394
0.00625632
0.00662312
0.00699379
0.00736776
0.00774446
0.00812333
0.00850382
0.00888538
0.00926745
0.00964943
0.0100307
0.0104107
0.0107889
0.0111646
0.0115374
0.0119065
0.0122714
0.0126315
0.0129862
0.0133348
0.0136768
0.0140116
0.0143385
0.0146572
0.0149668
0.015267
0.015557
0.0158365
0.0161047
0.0163613
0.0166057
0.0168375
0.0170562
0.0172613
0.0174523
0.0176289
0.0177906
0.0179372
0.0180683
0.0181838
0.0182835
0.0183673
0.0184353
0.0184876
0.0185246
0.0185468
0.0185548
0.0185497
0.0185326
0.0185051
0.0184687
0.0184256
0.018378
0.0183285
0.0182751
0.0182157
-9.66385e-05
-0.000180294
-0.000257486
-0.000331469
-0.000404364
-0.000473034
-0.000534752
-0.000587558
-0.000629881
-0.000660541
-0.000678694
-0.000683692
-0.000674984
-0.000652154
-0.00061498
-0.000563389
-0.000497375
-0.000416967
-0.000322256
-0.000213391
-9.05507e-05
4.60623e-05
0.000196213
0.000359635
0.000536047
0.000725174
0.000926744
0.00114046
0.00136598
0.00160296
0.00185105
0.00210989
0.00237914
0.0026584
0.00294729
0.00324535
0.00355216
0.00386731
0.00419036
0.00452084
0.00485823
0.00520206
0.0055518
0.00590698
0.00626706
0.00663153
0.00699985
0.00737145
0.00774579
0.00812231
0.00850049
0.00887978
0.0092596
0.00963938
0.0100185
0.0103964
0.0107725
0.0111462
0.0115169
0.011884
0.012247
0.0126051
0.0129578
0.0133044
0.0136445
0.0139773
0.0143024
0.0146191
0.0149269
0.0152253
0.0155135
0.0157912
0.0160578
0.0163129
0.0165559
0.0167864
0.0170038
0.0172079
0.017398
0.0175738
0.017735
0.0178813
0.0180123
0.018128
0.0182281
0.0183126
0.0183816
0.0184353
0.0184739
0.0184979
0.0185079
0.0185049
0.0184898
0.0184638
0.0184284
0.0183848
0.018335
0.0182807
0.0182178
0.0181418
-7.37713e-05
-0.000169601
-0.000252117
-0.000326676
-0.000397985
-0.000463782
-0.000521942
-0.000571019
-0.000609734
-0.000636988
-0.00065197
-0.000654105
-0.000642935
-0.000618107
-0.000579371
-0.000526574
-0.000459665
-0.000378679
-0.000283712
-0.000174882
-5.23178e-05
8.38225e-05
0.000233325
0.000395937
0.000571407
0.000759491
0.000959938
0.00117246
0.00139672
0.00163239
0.00187913
0.00213662
0.00240448
0.00268234
0.00296977
0.00326635
0.00357166
0.00388529
0.00420678
0.00453564
0.00487138
0.0052135
0.00556152
0.00591494
0.00627325
0.00663593
0.00700244
0.00737223
0.00774478
0.00811954
0.00849601
0.00887362
0.0092518
0.00962997
0.0100075
0.0103839
0.0107585
0.0111307
0.0115001
0.0118658
0.0122273
0.012584
0.0129353
0.0132806
0.0136193
0.0139508
0.0142745
0.0145899
0.0148963
0.0151934
0.0154804
0.0157569
0.0160224
0.0162764
0.0165184
0.016748
0.0169646
0.0171679
0.0173575
0.0175329
0.0176937
0.0178398
0.0179709
0.0180868
0.0181873
0.0182724
0.0183422
0.0183968
0.0184366
0.0184618
0.0184732
0.0184713
0.0184572
0.0184316
0.0183956
0.0183503
0.0182972
0.0182373
0.0181647
0.0180733
-5.34733e-05
-0.000160936
-0.000249675
-0.00032652
-0.000398118
-0.000462838
-0.000518972
-0.000565504
-0.000601533
-0.000626175
-0.000638677
-0.000638481
-0.000625209
-0.000598582
-0.000558368
-0.0005044
-0.000436608
-0.00035501
-0.000259676
-0.000150698
-2.81867e-05
0.00010771
0.000256797
0.00041886
0.000593683
0.000781048
0.000980704
0.00119236
0.00141571
0.00165044
0.00189623
0.00215275
0.00241963
0.00269648
0.00298288
0.00327841
0.00358267
0.00389522
0.00421561
0.00454332
0.00487788
0.00521879
0.00556558
0.00591777
0.00627484
0.00663626
0.00700151
0.00737007
0.0077414
0.008115
0.00849034
0.00886687
0.00924401
0.00962117
0.00999776
0.0103732
0.0107469
0.0111183
0.0114868
0.0118517
0.0122124
0.0125683
0.0129187
0.0132631
0.013601
0.0139317
0.0142546
0.0145692
0.0148749
0.0151711
0.0154574
0.0157332
0.0159981
0.0162515
0.0164929
0.016722
0.0169382
0.0171411
0.0173303
0.0175055
0.0176662
0.0178123
0.0179435
0.0180596
0.0181605
0.0182461
0.0183165
0.0183719
0.0184124
0.0184384
0.0184505
0.0184492
0.0184351
0.0184091
0.0183718
0.018324
0.0182668
0.0182011
0.0181193
0.0180142
-4.01093e-05
-0.000158181
-0.000253263
-0.000333198
-0.000406136
-0.000470961
-0.00052626
-0.000571295
-0.000605446
-0.000628093
-0.000638635
-0.000636582
-0.000621587
-0.000593399
-0.00055182
-0.000496721
-0.000428048
-0.0003458
-0.000250007
-0.000140735
-1.80911e-05
0.000117773
0.000266683
0.000428462
0.000602932
0.000789883
0.000989062
0.00120019
0.00142297
0.00165712
0.00190234
0.00215828
0.00242457
0.0027008
0.00298658
0.0032815
0.00358514
0.00389706
0.00421678
0.0045438
0.00487764
0.00521784
0.00556391
0.00591538
0.00627173
0.00663244
0.00699699
0.00736488
0.00773559
0.00810862
0.00848343
0.00885946
0.00923615
0.00961288
0.00998909
0.0103642
0.0107376
0.0111087
0.0114769
0.0118415
0.0122019
0.0125575
0.0129077
0.0132519
0.0135894
0.0139198
0.0142425
0.0145568
0.0148623
0.0151583
0.0154444
0.01572
0.0159847
0.0162379
0.0164792
0.0167082
0.0169243
0.0171271
0.0173163
0.0174914
0.0176522
0.0177984
0.0179298
0.0180461
0.0181474
0.0182334
0.0183043
0.0183602
0.0184012
0.0184277
0.01844
0.0184387
0.0184243
0.0183972
0.0183581
0.0183073
0.0182459
0.0181745
0.0180843
0.0179672
-3.65671e-05
-0.00016406
-0.000265224
-0.000348624
-0.000423493
-0.000489101
-0.000544342
-0.000588694
-0.000621693
-0.000642904
-0.000651922
-0.000648382
-0.000631971
-0.000602447
-0.000559653
-0.000503502
-0.000433957
-0.000351003
-0.000254652
-0.000144957
-2.20288e-05
0.000113993
0.000262961
0.000424731
0.000599135
0.000785963
0.00098497
0.00119589
0.00141846
0.00165241
0.00189742
0.00215315
0.00241922
0.00269524
0.00298081
0.00327554
0.00357898
0.00389069
0.00421017
0.00453695
0.00487056
0.00521053
0.0055564
0.00590767
0.00626382
0.00662436
0.00698878
0.00735657
0.00772725
0.00810029
0.00847515
0.00885127
0.00922808
0.00960497
0.00998138
0.0103567
0.0107304
0.0111017
0.0114702
0.0118351
0.0121958
0.0125516
0.0129021
0.0132465
0.0135844
0.0139151
0.0142381
0.0145527
0.0148585
0.0151548
0.0154412
0.0157171
0.0159821
0.0162356
0.0164772
0.0167063
0.0169226
0.0171257
0.0173151
0.0174904
0.0176515
0.017798
0.0179296
0.0180463
0.0181479
0.0182344
0.0183057
0.0183619
0.0184033
0.01843
0.0184423
0.0184406
0.0184254
0.018397
0.0183557
0.0183018
0.0182362
0.0181594
0.0180617
0.0179343
-4.48924e-05
-0.000180523
-0.000287268
-0.000374248
-0.000451416
-0.000518242
-0.0005739
-0.000618097
-0.000650496
-0.000670782
-0.000678692
-0.000673972
-0.000656373
-0.000625702
-0.000581844
-0.000524734
-0.000454332
-0.00037062
-0.000273614
-0.000163382
-4.00257e-05
9.6342e-05
0.000245604
0.000407626
0.000582238
0.000769228
0.000968367
0.00117942
0.00140213
0.00163622
0.00188139
0.00213728
0.00240351
0.0026797
0.00296548
0.00326042
0.00356408
0.00387599
0.00419569
0.00452269
0.00485653
0.00519678
0.00554294
0.00589453
0.00625103
0.00661195
0.0069768
0.00734508
0.0077163
0.00808992
0.00846541
0.00884218
0.00921967
0.00959729
0.00997444
0.0103506
0.010725
0.0110972
0.0114665
0.0118322
0.0121937
0.0125504
0.0129017
0.013247
0.0135858
0.0139174
0.0142412
0.0145567
0.0148633
0.0151605
0.0154477
0.0157244
0.0159901
0.0162443
0.0164865
0.0167163
0.0169332
0.0171368
0.0173267
0.0175025
0.017664
0.017811
0.0179431
0.0180603
0.0181623
0.0182492
0.0183209
0.0183774
0.018419
0.0184457
0.0184578
0.0184555
0.0184393
0.0184092
0.0183657
0.0183087
0.018239
0.0181572
0.0180528
0.0179166
-6.65212e-05
-0.000209091
-0.000320784
-0.000411201
-0.000490852
-0.000559224
-0.000615628
-0.000660004
-0.000692187
-0.000711953
-0.000719108
-0.000713476
-0.000694896
-0.000663248
-0.000618451
-0.000560448
-0.000489194
-0.000404682
-0.00030695
-0.000196071
-7.21332e-05
6.47801e-05
0.000214566
0.000377086
0.000552166
0.000739603
0.000939187
0.0011507
0.0013739
0.0016085
0.00185418
0.00211059
0.00237736
0.00265412
0.0029405
0.00323606
0.00354034
0.00385289
0.00417324
0.00450093
0.0048355
0.00517652
0.00552349
0.00587592
0.00623331
0.00659517
0.00696101
0.00733035
0.00770267
0.00807745
0.00845411
0.0088321
0.00921083
0.00958971
0.00996817
0.0103456
0.0107214
0.0110949
0.0114656
0.0118326
0.0121955
0.0125536
0.0129064
0.0132532
0.0135934
0.0139264
0.0142517
0.0145686
0.0148766
0.0151752
0.0154637
0.0157417
0.0160086
0.016264
0.0165073
0.0167381
0.0169559
0.0171604
0.0173511
0.0175277
0.01769
0.0178376
0.0179704
0.0180882
0.0181908
0.0182782
0.0183503
0.0184071
0.0184488
0.0184754
0.0184871
0.0184841
0.0184666
0.0184348
0.0183888
0.0183287
0.0182552
0.0181688
0.0180585
0.0179148
-0.000102329
-0.000250885
-0.000366944
-0.00046051
-0.000542617
-0.000612717
-0.00067013
-0.000714955
-0.000747198
-0.000766721
-0.000773381
-0.000767069
-0.000747709
-0.000715236
-0.000669592
-0.000610726
-0.000538614
-0.000453271
-0.000354748
-0.000243109
-0.000118421
1.92427e-05
0.000169774
0.00033303
0.000508838
0.000697013
0.000897364
0.00110968
0.00133371
0.00156916
0.0018157
0.002073
0.00234069
0.00261842
0.0029058
0.00320237
0.0035077
0.00382131
0.00414277
0.00447163
0.00480743
0.00514973
0.00549803
0.00585183
0.00621065
0.006574
0.00694141
0.00731237
0.00768637
0.00806285
0.00844124
0.00882098
0.00920149
0.00958219
0.00996248
0.0103418
0.0107194
0.0110949
0.0114674
0.0118364
0.0122012
0.0125613
0.0129161
0.0132649
0.0136071
0.0139422
0.0142695
0.0145884
0.0148983
0.0151988
0.0154891
0.0157689
0.0160375
0.0162945
0.0165394
0.0167716
0.0169908
0.0171965
0.0173884
0.0175662
0.0177295
0.0178781
0.0180118
0.0181304
0.0182337
0.0183217
0.0183943
0.0184514
0.0184931
0.0185194
0.0185306
0.0185267
0.0185078
0.0184742
0.0184258
0.0183627
0.0182855
0.0181948
0.0180794
0.0179292
-0.000152812
-0.000306628
-0.000426624
-0.000523079
-0.000607487
-0.000679343
-0.000737952
-0.000783459
-0.000815967
-0.000835434
-0.000841792
-0.000834997
-0.000815027
-0.000781845
-0.000735411
-0.0006757
-0.000602721
-0.00051651
-0.000417115
-0.000304582
-0.000178969
-4.03566e-05
0.000111137
0.000275366
0.000452172
0.000641386
0.000842826
0.00105627
0.00128147
0.0015181
0.00176587
0.00202443
0.00229344
0.00257253
0.0028613
0.0031593
0.00346609
0.00378122
0.00410426
0.00443478
0.00477231
0.0051164
0.00546655
0.00582227
0.00618307
0.00654848
0.00691802
0.00729117
0.00766739
0.00804612
0.00842679
0.00880883
0.00919167
0.00957471
0.00995737
0.010339
0.0107191
0.011097
0.0114719
0.0118434
0.0122108
0.0125735
0.0129308
0.0132822
0.0136271
0.0139647
0.0142946
0.014616
0.0149285
0.0152313
0.015524
0.0158061
0.0160769
0.016336
0.0165828
0.0168169
0.0170379
0.0172453
0.0174388
0.0176181
0.0177828
0.0179326
0.0180675
0.0181871
0.0182913
0.01838
0.018453
0.0185104
0.0185521
0.0185781
0.0185886
0.0185837
0.0185634
0.0185278
0.018477
0.0184109
0.0183303
0.0182357
0.0181156
0.0179599
-0.000218351
-0.00037681
-0.000500407
-0.000599577
-0.000686162
-0.000759741
-0.000819631
-0.00086597
-0.000898897
-0.00091846
-0.000924675
-0.000917549
-0.000897083
-0.000863261
-0.000816072
-0.00075553
-0.00068167
-0.000594534
-0.000494156
-0.000380579
-0.000253867
-0.000114114
3.85565e-05
0.000204006
0.000382091
0.000572653
0.000775501
0.000990405
0.00121709
0.00145526
0.00170461
0.00196482
0.00223553
0.00251637
0.00280693
0.00310677
0.00341546
0.00373257
0.00405768
0.00439035
0.00473012
0.00507651
0.00542904
0.00578722
0.00615057
0.00651861
0.00689084
0.00726673
0.00764573
0.00802726
0.00841076
0.00879565
0.00918136
0.0095673
0.00995288
0.0103375
0.0107205
0.0111014
0.0114793
0.0118539
0.0122244
0.0125902
0.0129507
0.0133053
0.0136533
0.0139941
0.0143271
0.0146516
0.014967
0.0152728
0.0155684
0.0158532
0.0161267
0.0163884
0.0166377
0.0168742
0.0170974
0.0173069
0.0175024
0.0176835
0.01785
0.0180014
0.0181377
0.0182585
0.0183637
0.0184531
0.0185266
0.0185842
0.0186259
0.0186516
0.0186613
0.0186553
0.0186334
0.0185959
0.0185427
0.0184738
0.0183899
0.0182918
0.0181676
0.0180069
-0.000299321
-0.000461862
-0.000588734
-0.000690502
-0.000779221
-0.000854493
-0.00091567
-0.000962909
-0.000996373
-0.00101617
-0.00102236
-0.001015
-0.000994102
-0.000959676
-0.000911756
-0.000850387
-0.000775611
-0.00068746
-0.00058597
-0.000471194
-0.000343212
-0.000202125
-4.80549e-05
0.000118874
0.000298526
0.000490736
0.0006953
0.000911975
0.00114048
0.00138054
0.00163184
0.00189407
0.00216687
0.00244985
0.00274261
0.00304471
0.00335575
0.00367531
0.00400297
0.00433829
0.00468079
0.00503001
0.00538546
0.00574666
0.00611311
0.00648433
0.00685981
0.007239
0.00762133
0.00800623
0.00839311
0.00878141
0.00917056
0.00955997
0.00994904
0.0103372
0.0107237
0.0111081
0.0114897
0.0118679
0.0122421
0.0126116
0.0129759
0.0133342
0.0136859
0.0140304
0.014367
0.0146951
0.0150141
0.0153234
0.0156224
0.0159105
0.0161872
0.0164519
0.0167041
0.0169435
0.0171694
0.0173815
0.0175794
0.0177627
0.0179312
0.0180845
0.0182223
0.0183445
0.0184508
0.0185411
0.0186152
0.018673
0.0187146
0.0187398
0.0187488
0.0187415
0.0187181
0.0186787
0.0186231
0.0185515
0.0184646
0.0183632
0.0182353
0.0180703
-0.000396005
-0.000562189
-0.000692042
-0.000796284
-0.000887108
-0.000964054
-0.00102651
-0.00107468
-0.00110877
-0.00112889
-0.00113515
-0.0011276
-0.0011063
-0.00107129
-0.00102265
-0.000960431
-0.000884667
-0.000795393
-0.000692656
-0.000576531
-0.000447108
-0.000304488
-0.000148782
1.98923e-05
0.000201393
0.000395541
0.000602116
0.000820871
0.00105153
0.00129382
0.00154745
0.00181207
0.00208733
0.00237284
0.0026682
0.00297301
0.00328685
0.00360933
0.00394003
0.00427849
0.00462424
0.0049768
0.0053357
0.00570045
0.00607056
0.00644552
0.0068248
0.00720785
0.00759407
0.00798288
0.00837373
0.00876603
0.00915922
0.0095527
0.00994587
0.0103381
0.0107289
0.0111174
0.0115033
0.0118857
0.0122642
0.012638
0.0130065
0.0133691
0.0137251
0.0140739
0.0144146
0.0147469
0.0150699
0.0153831
0.015686
0.0159779
0.0162583
0.0165266
0.0167823
0.0170249
0.0172539
0.017469
0.0176697
0.0178556
0.0180264
0.0181818
0.0183214
0.0184451
0.0185527
0.0186438
0.0187185
0.0187766
0.0188181
0.0188429
0.018851
0.0188426
0.0188177
0.0187764
0.0187186
0.0186444
0.0185548
0.0184504
0.018319
0.0181501
-0.000508529
-0.000678113
-0.00081074
-0.000917304
-0.00101016
-0.00108878
-0.00115252
-0.00120166
-0.00123642
-0.00125692
-0.00126327
-0.00125555
-0.00123387
-0.00119831
-0.00114893
-0.0010858
-0.00100895
-0.00091844
-0.000814329
-0.000696706
-0.000565666
-0.000421302
-0.000263719
-9.30404e-05
9.0578e-05
0.000286938
0.000495813
0.000716956
0.000950103
0.00119498
0.00145128
0.00171866
0.00199675
0.00228519
0.00258357
0.00289151
0.00320862
0.00353449
0.0038687
0.00421079
0.00456028
0.0049167
0.00527958
0.00564843
0.00602273
0.00640198
0.00678561
0.00717305
0.00756373
0.00795705
0.00835245
0.00874936
0.00914721
0.00954539
0.0099433
0.0103403
0.0107359
0.0111293
0.01152
0.0119074
0.0122907
0.0126694
0.0130429
0.0134103
0.0137711
0.0141246
0.01447
0.0148069
0.0151344
0.0154522
0.0157594
0.0160556
0.0163402
0.0166125
0.0168721
0.0171185
0.0173511
0.0175696
0.0177734
0.0179622
0.0181356
0.0182933
0.0184349
0.0185603
0.0186691
0.0187613
0.0188366
0.018895
0.0189365
0.0189609
0.0189684
0.0189589
0.0189326
0.0188895
0.0188296
0.0187531
0.0186608
0.0185536
0.0184191
0.0182464
-0.000636913
-0.000809815
-0.000945117
-0.00105388
-0.00114869
-0.00122896
-0.00129403
-0.00134416
-0.00137961
-0.0014005
-0.00140695
-0.00139909
-0.00137705
-0.00134092
-0.00129076
-0.00122663
-0.0011486
-0.00105674
-0.000951132
-0.00083186
-0.000699017
-0.000552692
-0.000392995
-0.000220066
-3.40783e-05
0.000164759
0.000376219
0.00060006
0.00083602
0.00108382
0.00134314
0.00161363
0.00189494
0.00218669
0.00248852
0.00280004
0.00312087
0.0034506
0.00378879
0.00413499
0.00448872
0.00484952
0.0052169
0.00559037
0.00596941
0.00635347
0.00674199
0.00713439
0.00753008
0.0079285
0.00832906
0.00873121
0.00913436
0.0095379
0.00994122
0.0103437
0.0107447
0.0111437
0.0115399
0.0119328
0.0123217
0.012706
0.0130849
0.0134577
0.0138239
0.0141826
0.0145333
0.0148753
0.0152079
0.0155307
0.0158428
0.0161438
0.0164331
0.0167099
0.0169739
0.0172244
0.017461
0.0176832
0.0178904
0.0180824
0.0182587
0.0184189
0.0185627
0.0186899
0.0188002
0.0188935
0.0189697
0.0190285
0.01907
0.0190942
0.0191011
0.0190906
0.019063
0.0190183
0.0189566
0.0188778
0.018783
0.0186731
0.0185356
0.0183593
-0.000781175
-0.000957389
-0.00109535
-0.00120628
-0.001303
-0.00138492
-0.00145132
-0.00150246
-0.00153858
-0.00155986
-0.00156644
-0.00155846
-0.00153605
-0.00149931
-0.0014483
-0.0013831
-0.0013038
-0.00121049
-0.00110325
-0.000982166
-0.000847325
-0.000698825
-0.00053679
-0.00036138
-0.00017278
2.87972e-05
0.00024313
0.000469977
0.000709072
0.000960121
0.0012228
0.00149678
0.00178168
0.00207716
0.00238286
0.00269841
0.00302341
0.00335746
0.00370011
0.0040509
0.00440937
0.00477505
0.00514745
0.00552607
0.00591036
0.00629976
0.00669371
0.00709163
0.00749293
0.00789704
0.0083034
0.00871143
0.00912054
0.00953011
0.00993951
0.0103481
0.0107553
0.0111605
0.011563
0.0119621
0.0123572
0.0127475
0.0131325
0.0135114
0.0138834
0.014248
0.0146045
0.0149522
0.0152905
0.0156187
0.0159363
0.0162426
0.016537
0.0168188
0.0170876
0.0173427
0.0175836
0.0178098
0.0180209
0.0182163
0.0183956
0.0185586
0.0187049
0.0188341
0.0189461
0.0190407
0.0191178
0.0191773
0.0192191
0.0192432
0.0192497
0.0192385
0.0192097
0.0191636
0.0191
0.0190191
0.0189219
0.0188093
0.0186687
0.0184888
-0.000941406
-0.00112095
-0.0012616
-0.00137472
-0.00147335
-0.00155691
-0.00162464
-0.00167679
-0.00171362
-0.00173531
-0.00174203
-0.00173393
-0.00171112
-0.00167371
-0.00162179
-0.00155545
-0.0014748
-0.00137992
-0.00127091
-0.00114784
-0.0010108
-0.000859924
-0.00069534
-0.000517225
-0.00032577
-0.000121183
9.63138e-05
0.000326475
0.000569021
0.00082365
0.00109004
0.00136785
0.00165674
0.00195637
0.00226638
0.0025864
0.00291604
0.00325486
0.00360244
0.00395832
0.00432203
0.00469311
0.00507106
0.00545534
0.0058454
0.00624069
0.00664062
0.00704463
0.00745213
0.00786256
0.00827535
0.00868991
0.00910565
0.00952192
0.0099381
0.0103535
0.0107676
0.0111797
0.011589
0.011995
0.0123969
0.012794
0.0131857
0.0135712
0.0139498
0.0143208
0.0146836
0.0150376
0.0153821
0.0157164
0.01604
0.0163521
0.0166521
0.0169394
0.0172133
0.0174734
0.017719
0.0179496
0.0181647
0.0183639
0.0185467
0.0187127
0.0188616
0.0189932
0.0191071
0.0192033
0.0192816
0.019342
0.0193843
0.0194085
0.0194147
0.0194029
0.0193731
0.0193255
0.0192602
0.0191771
0.0190775
0.0189622
0.0188184
0.0186347
-0.00111778
-0.00130069
-0.00144407
-0.00155944
-0.00166003
-0.00174523
-0.0018143
-0.00186748
-0.00190504
-0.00192717
-0.00193404
-0.00192579
-0.00190255
-0.00186442
-0.00181152
-0.00174398
-0.00166187
-0.00156531
-0.00145436
-0.00132913
-0.00118972
-0.00103626
-0.000868923
-0.000687874
-0.000493308
-0.000285434
-6.44796e-05
0.000169299
0.000415612
0.000674153
0.000944605
0.00122664
0.00151992
0.00182412
0.00213889
0.00246383
0.00279855
0.00314262
0.00349562
0.00385709
0.00422656
0.00460355
0.00498755
0.00537802
0.0057744
0.00617612
0.00658261
0.00699331
0.00740764
0.00782502
0.00824489
0.00866664
0.00908967
0.00951331
0.00993693
0.0103599
0.0107815
0.0112011
0.011618
0.0120315
0.0124408
0.0128453
0.0132443
0.013637
0.0140228
0.0144009
0.0147708
0.0151316
0.0154829
0.0158239
0.016154
0.0164724
0.0167785
0.0170717
0.0173513
0.0176167
0.0178674
0.0181027
0.0183223
0.0185255
0.018712
0.0188814
0.0190333
0.0191675
0.0192837
0.0193818
0.0194616
0.019523
0.019566
0.0195906
0.0195966
0.0195843
0.0195535
0.0195046
0.0194374
0.0193521
0.0192499
0.0191318
0.0189847
0.0187971
-0.00131049
-0.00149687
-0.00164304
-0.0017607
-0.00186331
-0.00195021
-0.00202065
-0.00207491
-0.00211324
-0.00213583
-0.00214283
-0.0021344
-0.00211068
-0.00207179
-0.00201787
-0.00194903
-0.00186536
-0.00176696
-0.00165392
-0.00152635
-0.00138438
-0.00122815
-0.00105783
-0.000873608
-0.000675664
-0.000464219
-0.000239513
-1.81275e-06
0.000248587
0.00051138
0.000786261
0.00107291
0.001371
0.00168021
0.00200016
0.00233048
0.00267075
0.00302056
0.00337947
0.00374703
0.00412277
0.0045062
0.00489679
0.00529399
0.00569724
0.00610596
0.00651962
0.00693762
0.00735941
0.00778441
0.00821201
0.00864163
0.0090726
0.00950429
0.00993601
0.0103671
0.0107969
0.0112247
0.0116497
0.0120713
0.0124888
0.0129013
0.0133083
0.0137089
0.0141025
0.0144884
0.0148659
0.0152343
0.015593
0.0159413
0.0162784
0.0166037
0.0169164
0.017216
0.0175017
0.0177729
0.018029
0.0182695
0.0184939
0.0187016
0.0188922
0.0190653
0.0192206
0.0193578
0.0194766
0.0195768
0.0196584
0.0197211
0.019765
0.0197899
0.0197959
0.019783
0.0197512
0.0197008
0.0196317
0.0195441
0.0194392
0.0193181
0.0191675
0.0189757
-0.00151976
-0.00170976
-0.00185881
-0.00197885
-0.00208354
-0.00217223
-0.00224413
-0.00229951
-0.00233864
-0.00236168
-0.00236879
-0.00236016
-0.00233592
-0.00229622
-0.0022412
-0.00217096
-0.0020856
-0.00198521
-0.00186991
-0.00173982
-0.0015951
-0.00143589
-0.00126237
-0.00107471
-0.000873112
-0.000657813
-0.000429061
-0.000187132
6.76791e-05
0.000335077
0.000614765
0.000906433
0.00120975
0.00152439
0.00184998
0.00218612
0.00253241
0.00288844
0.00325377
0.00362794
0.00401047
0.00440086
0.00479857
0.00520306
0.00561375
0.00603009
0.00645152
0.00687748
0.00730739
0.00774066
0.00817668
0.00861482
0.00905441
0.00949479
0.00993527
0.0103752
0.0108137
0.0112503
0.0116842
0.0121146
0.0125407
0.012962
0.0133775
0.0137867
0.0141888
0.0145832
0.014969
0.0153457
0.0157125
0.0160686
0.0164134
0.0167461
0.0170661
0.0173725
0.0176647
0.0179422
0.0182042
0.0184503
0.0186799
0.0188925
0.0190877
0.0192649
0.019424
0.0195645
0.0196862
0.0197889
0.0198724
0.0199366
0.0199814
0.0200068
0.0200127
0.0199992
0.0199663
0.0199143
0.0198431
0.019753
0.0196453
0.0195212
0.019367
0.0191708
-0.00174582
-0.00193967
-0.00209176
-0.00221427
-0.00232117
-0.00241174
-0.00248517
-0.00254172
-0.00258164
-0.00260513
-0.00261235
-0.00260348
-0.00257869
-0.00253813
-0.0024819
-0.00241013
-0.00232292
-0.00222038
-0.00210266
-0.00196988
-0.00182221
-0.0016598
-0.00148282
-0.00129146
-0.00108594
-0.000866509
-0.000633421
-0.000386953
-0.000127394
0.00014497
0.000429852
0.00072694
0.0010359
0.0013564
0.00168805
0.00203048
0.00238326
0.00274599
0.00311824
0.00349954
0.00388938
0.00428726
0.00469265
0.00510499
0.00552372
0.00594829
0.00637814
0.00681271
0.00725141
0.00769361
0.00813871
0.00858603
0.00903491
0.00948464
0.00993452
0.0103838
0.0108319
0.0112779
0.0117212
0.012161
0.0125966
0.0130272
0.013452
0.0138705
0.0142819
0.0146854
0.0150803
0.0154659
0.0158414
0.0162061
0.0165592
0.0168999
0.0172275
0.0175414
0.0178407
0.0181249
0.0183934
0.0186456
0.0188809
0.0190989
0.019299
0.0194808
0.019644
0.0197882
0.019913
0.0200184
0.0201041
0.0201698
0.0202157
0.0202415
0.0202472
0.020233
0.0201989
0.0201452
0.0200718
0.0199792
0.0198686
0.0197413
0.0195833
0.0193826
-0.001989
-0.00218695
-0.00234229
-0.00246744
-0.00257666
-0.0026692
-0.00274421
-0.00280195
-0.00284269
-0.00286663
-0.00287394
-0.00286482
-0.00283942
-0.00279788
-0.00274033
-0.00266688
-0.00257767
-0.00247284
-0.00235252
-0.00221687
-0.00206604
-0.00190018
-0.0017195
-0.00152419
-0.00131449
-0.00109065
-0.00085293
-0.000601606
-0.000336957
-5.92597e-05
0.000231199
0.000534104
0.000849117
0.00117589
0.00151405
0.00186321
0.00222296
0.0025929
0.00297257
0.00336149
0.00375917
0.00416508
0.0045787
0.00499947
0.00542684
0.00586026
0.00629918
0.00674302
0.00719115
0.00764295
0.00809777
0.00855494
0.00901374
0.00947348
0.00993341
0.0103928
0.010851
0.0113072
0.0117606
0.0122105
0.0126561
0.0130968
0.0135318
0.0139603
0.0143816
0.014795
0.0151997
0.0155949
0.0159798
0.0163537
0.0167157
0.017065
0.017401
0.0177228
0.0180299
0.0183214
0.0185969
0.0188557
0.0190972
0.019321
0.0195265
0.0197133
0.019881
0.0200292
0.0201575
0.0202657
0.0203536
0.020421
0.0204679
0.0204941
0.0204997
0.0204847
0.0204494
0.0203938
0.0203183
0.020223
0.0201094
0.0199788
0.019817
0.0196115
-0.0022497
-0.00245202
-0.00261082
-0.00273877
-0.00285042
-0.00294501
-0.00302167
-0.00308064
-0.00312222
-0.00314662
-0.00315401
-0.00314457
-0.00311847
-0.00307585
-0.00301684
-0.0029416
-0.00285026
-0.00274297
-0.00261989
-0.00248116
-0.00232694
-0.00215742
-0.0019728
-0.00177329
-0.00155915
-0.00133062
-0.00108798
-0.000831473
-0.000561385
-0.000277989
1.84266e-05
0.00032754
0.000649008
0.000982481
0.00132759
0.00168395
0.00205115
0.00242877
0.00281636
0.00321343
0.00361947
0.00403396
0.00445637
0.00488616
0.00532278
0.00576568
0.0062143
0.00666803
0.00712624
0.00758827
0.00805345
0.00852109
0.00899047
0.00946084
0.00993149
0.0104017
0.0108706
0.0113376
0.0118019
0.0122626
0.0127192
0.0131707
0.0136165
0.0140559
0.0144879
0.014912
0.0153272
0.0157327
0.0161277
0.0165114
0.016883
0.0172416
0.0175865
0.017917
0.0182324