/*--------------------------------*- C++ -*----------------------------------*\
| =========                 |                                                 |
| \\      /  F ield         | OpenFOAM: The Open Source CFD Toolbox           |
|  \\    /   O peration     | Version:  2512                                  |
|   \\  /    A nd           | Website:  www.openfoam.com                      |
|    \\/     M anipulation  |                                                 |
\*---------------------------------------------------------------------------*/
FoamFile
{
    version     2.0;
    format      ascii;
    arch        "LSB;label=32;scalar=64";
    class       surfaceScalarField;
    location    "0.04";
    object      phi;
}
// * * * * * * * * * * * * * * * * * * * * * * * * * * * * * * * * * * * * * //

dimensions      [0 3 -1 0 0 0 0];

oriented        oriented;

internalField   nonuniform List<scalar> 
19800
(
7.06594e-11
-7.06541e-11
1.5043e-10
-7.97629e-11
1.23957e-10
2.64721e-11
-5.50644e-12
1.29461e-10
-2.38675e-10
2.33163e-10
-5.64474e-10
3.258e-10
-9.69497e-10
4.05017e-10
-1.44038e-09
4.70881e-10
-1.96465e-09
5.24261e-10
-2.53104e-09
5.66395e-10
-3.12977e-09
5.98731e-10
-3.75246e-09
6.22681e-10
-4.39189e-09
6.39439e-10
-5.0419e-09
6.50015e-10
-5.69736e-09
6.55459e-10
-6.35413e-09
6.56774e-10
-7.00889e-09
6.5476e-10
-7.6589e-09
6.50011e-10
-8.30189e-09
6.42993e-10
-8.93598e-09
6.34098e-10
-9.55965e-09
6.23663e-10
-1.01716e-08
6.11975e-10
-1.07709e-08
5.99262e-10
-1.13566e-08
5.85678e-10
-1.19279e-08
5.71302e-10
-1.24841e-08
5.5618e-10
-1.30244e-08
5.4037e-10
-1.35484e-08
5.23942e-10
-1.40553e-08
5.06944e-10
-1.45447e-08
4.89378e-10
-1.50159e-08
4.7124e-10
-1.54685e-08
4.52549e-10
-1.59018e-08
4.33332e-10
-1.63154e-08
4.13601e-10
-1.67088e-08
3.93365e-10
-1.70814e-08
3.72638e-10
-1.74328e-08
3.51436e-10
-1.77626e-08
3.29777e-10
-1.80703e-08
3.0768e-10
-1.83555e-08
2.85164e-10
-1.86177e-08
2.62244e-10
-1.88566e-08
2.38931e-10
-1.90719e-08
2.15255e-10
-1.92632e-08
1.91248e-10
-1.94301e-08
1.66939e-10
-1.95724e-08
1.42343e-10
-1.96899e-08
1.17474e-10
-1.97823e-08
9.2357e-11
-1.98493e-08
6.70239e-11
-1.98908e-08
4.1505e-11
-1.99066e-08
1.58237e-11
-1.98966e-08
-1.00017e-11
-1.98607e-08
-3.59513e-11
-1.97987e-08
-6.20003e-11
-1.97106e-08
-8.81146e-11
-1.95963e-08
-1.14261e-10
-1.94559e-08
-1.4041e-10
-1.92894e-08
-1.66531e-10
-1.90968e-08
-1.92593e-10
-1.88782e-08
-2.18562e-10
-1.86338e-08
-2.44399e-10
-1.83637e-08
-2.70067e-10
-1.80682e-08
-2.95531e-10
-1.77474e-08
-3.20748e-10
-1.74018e-08
-3.4568e-10
-1.70315e-08
-3.7029e-10
-1.66369e-08
-3.94538e-10
-1.62186e-08
-4.18387e-10
-1.57767e-08
-4.41803e-10
-1.5312e-08
-4.64744e-10
-1.48248e-08
-4.87169e-10
-1.43158e-08
-5.09034e-10
-1.37855e-08
-5.30293e-10
-1.32346e-08
-5.50893e-10
-1.26638e-08
-5.70776e-10
-1.2074e-08
-5.8987e-10
-1.14659e-08
-6.08084e-10
-1.08406e-08
-6.253e-10
-1.01992e-08
-6.41366e-10
-9.54312e-09
-6.5609e-10
-8.87389e-09
-6.69226e-10
-8.19341e-09
-6.80473e-10
-7.50395e-09
-6.8946e-10
-6.80823e-09
-6.95732e-10
-6.1095e-09
-6.9873e-10
-5.41172e-09
-6.97785e-10
-4.71961e-09
-6.92111e-10
-4.03881e-09
-6.80802e-10
-3.37599e-09
-6.62827e-10
-2.73895e-09
-6.37034e-10
-2.13678e-09
-6.02172e-10
-1.57985e-09
-5.56928e-10
-1.07985e-09
-5.00003e-10
-6.49593e-10
-4.30259e-10
-3.02587e-10
-3.47007e-10
-5.19137e-11
-2.50675e-10
9.23122e-11
-1.44229e-10
1.28178e-10
-3.58646e-11
7.38511e-11
5.43249e-11
7.38462e-11
2.85884e-11
-9.92378e-11
-1.89934e-11
-3.21924e-11
-2.49452e-10
2.5694e-10
-7.17249e-10
5.97259e-10
-1.42176e-09
9.37673e-10
-2.34801e-09
1.25205e-09
-3.47165e-09
1.52865e-09
-4.76467e-09
1.7639e-09
-6.19879e-09
1.95839e-09
-7.74711e-09
2.11472e-09
-9.38502e-09
2.23664e-09
-1.10906e-08
2.32831e-09
-1.28449e-08
2.39371e-09
-1.46315e-08
2.43662e-09
-1.64366e-08
2.46056e-09
-1.82486e-08
2.46871e-09
-2.00577e-08
2.46383e-09
-2.18559e-08
2.44822e-09
-2.36366e-08
2.42373e-09
-2.53944e-08
2.3919e-09
-2.71247e-08
2.35399e-09
-2.88238e-08
2.31103e-09
-3.04883e-08
2.26382e-09
-3.21156e-08
2.21296e-09
-3.37032e-08
2.15886e-09
-3.52488e-08
2.10182e-09
-3.67505e-08
2.04211e-09
-3.82065e-08
1.97992e-09
-3.9615e-08
1.9154e-09
-4.09742e-08
1.84865e-09
-4.22827e-08
1.77974e-09
-4.35389e-08
1.70874e-09
-4.47413e-08
1.63571e-09
-4.58884e-08
1.56072e-09
-4.69789e-08
1.48384e-09
-4.80114e-08
1.40511e-09
-4.89845e-08
1.32461e-09
-4.98972e-08
1.2424e-09
-5.0748e-08
1.15856e-09
-5.1536e-08
1.07315e-09
-5.226e-08
9.86244e-10
-5.2919e-08
8.97915e-10
-5.3512e-08
8.08249e-10
-5.40381e-08
7.17339e-10
-5.44964e-08
6.25276e-10
-5.48862e-08
5.32147e-10
-5.52068e-08
4.38037e-10
-5.54575e-08
3.43034e-10
-5.56377e-08
2.47235e-10
-5.57469e-08
1.50734e-10
-5.57847e-08
5.36245e-11
-5.57507e-08
-4.40022e-11
-5.56447e-08
-1.42048e-10
-5.54662e-08
-2.40411e-10
-5.52154e-08
-3.38979e-10
-5.4892e-08
-4.37638e-10
-5.44961e-08
-5.36271e-10
-5.40279e-08
-6.34759e-10
-5.34875e-08
-7.32977e-10
-5.28753e-08
-8.30797e-10
-5.21916e-08
-9.28084e-10
-5.1437e-08
-1.0247e-09
-5.0612e-08
-1.1205e-09
-4.97174e-08
-1.21536e-09
-4.87539e-08
-1.30912e-09
-4.77226e-08
-1.40165e-09
-4.66243e-08
-1.49281e-09
-4.54602e-08
-1.58244e-09
-4.42316e-08
-1.67041e-09
-4.29398e-08
-1.75656e-09
-4.15862e-08
-1.84073e-09
-4.01725e-08
-1.92275e-09
-3.87004e-08
-2.00243e-09
-3.71717e-08
-2.07955e-09
-3.55886e-08
-2.15388e-09
-3.39534e-08
-2.22509e-09
-3.22687e-08
-2.29283e-09
-3.05374e-08
-2.35661e-09
-2.87629e-08
-2.41583e-09
-2.69492e-08
-2.46977e-09
-2.5101e-08
-2.51747e-09
-2.32236e-08
-2.55781e-09
-2.13237e-08
-2.58937e-09
-1.9409e-08
-2.61045e-09
-1.74887e-08
-2.61901e-09
-1.55739e-08
-2.61264e-09
-1.36775e-08
-2.58854e-09
-1.18147e-08
-2.54355e-09
-1.00034e-08
-2.47414e-09
-8.26393e-09
-2.37649e-09
-6.6195e-09
-2.2466e-09
-5.0959e-09
-2.08054e-09
-3.72111e-09
-1.8748e-09
-2.52441e-09
-1.62696e-09
-1.53462e-09
-1.33681e-09
-7.76807e-10
-1.00849e-09
-2.66757e-10
-6.54274e-10
-1.81589e-12
-3.00794e-10
5.44388e-11
-1.92341e-12
1.28287e-10
-3.24804e-11
-6.67586e-11
-2.87597e-10
2.2293e-10
-8.2561e-10
7.94947e-10
-1.68981e-09
1.46146e-09
-2.88397e-09
2.13182e-09
-4.39058e-09
2.75867e-09
-6.17973e-09
3.3178e-09
-8.21528e-09
3.79944e-09
-1.04592e-08
4.20232e-09
-1.28743e-08
4.52985e-09
-1.54257e-08
4.78806e-09
-1.80817e-08
4.98427e-09
-2.0814e-08
5.12603e-09
-2.35982e-08
5.22077e-09
-2.64131e-08
5.27545e-09
-2.92408e-08
5.29641e-09
-3.20661e-08
5.28922e-09
-3.48765e-08
5.25861e-09
-3.76614e-08
5.20856e-09
-4.04118e-08
5.14234e-09
-4.31205e-08
5.06267e-09
-4.57812e-08
4.9717e-09
-4.83885e-08
4.87115e-09
-5.09379e-08
4.76235e-09
-5.34253e-08
4.64627e-09
-5.58471e-08
4.52364e-09
-5.82001e-08
4.39506e-09
-6.04811e-08
4.26098e-09
-6.26875e-08
4.12173e-09
-6.48164e-08
3.97757e-09
-6.68653e-08
3.82868e-09
-6.88318e-08
3.67527e-09
-7.07136e-08
3.51748e-09
-7.25084e-08
3.35547e-09
-7.42139e-08
3.18938e-09
-7.58282e-08
3.01935e-09
-7.73491e-08
2.84553e-09
-7.87748e-08
2.66806e-09
-8.01033e-08
2.48709e-09
-8.13329e-08
2.30279e-09
-8.2462e-08
2.11531e-09
-8.34889e-08
1.92482e-09
-8.44122e-08
1.7315e-09
-8.52304e-08
1.53553e-09
-8.59422e-08
1.3371e-09
-8.65464e-08
1.13641e-09
-8.70421e-08
9.33644e-10
-8.7428e-08
7.28998e-10
-8.77035e-08
5.22676e-10
-8.78676e-08
3.14884e-10
-8.79198e-08
1.05827e-10
-8.78595e-08
-1.04286e-10
-8.76864e-08
-3.15237e-10
-8.74e-08
-5.26797e-10
-8.70002e-08
-7.38729e-10
-8.64871e-08
-9.50789e-10
-8.58606e-08
-1.16272e-09
-8.51211e-08
-1.37428e-09
-8.42689e-08
-1.58519e-09
-8.33045e-08
-1.79518e-09
-8.22286e-08
-2.00397e-09
-8.1042e-08
-2.21127e-09
-7.97458e-08
-2.41678e-09
-7.83409e-08
-2.62022e-09
-7.68287e-08
-2.82129e-09
-7.52107e-08
-3.01969e-09
-7.34884e-08
-3.2151e-09
-7.16636e-08
-3.40723e-09
-6.97383e-08
-3.59573e-09
-6.77145e-08
-3.78029e-09
-6.55947e-08
-3.96055e-09
-6.33814e-08
-4.13611e-09
-6.10772e-08
-4.30656e-09
-5.86854e-08
-4.47141e-09
-5.62092e-08
-4.63008e-09
-5.36524e-08
-4.78189e-09
-5.10192e-08
-4.92599e-09
-4.83145e-08
-5.06133e-09
-4.55437e-08
-5.18661e-09
-4.27132e-08
-5.3002e-09
-3.98306e-08
-5.40011e-09
-3.69046e-08
-5.48387e-09
-3.39454e-08
-5.5485e-09
-3.09655e-08
-5.59041e-09
-2.79791e-08
-5.60534e-09
-2.50034e-08
-5.58834e-09
-2.20583e-08
-5.53371e-09
-1.91668e-08
-5.43507e-09
-1.63555e-08
-5.28543e-09
-1.36546e-08
-5.07741e-09
-1.10977e-08
-4.80351e-09
-8.72152e-09
-4.45669e-09
-6.56512e-09
-4.0312e-09
-4.66814e-09
-3.52394e-09
-3.06832e-09
-2.93664e-09
-1.79731e-09
-2.2795e-09
-8.74441e-10
-1.57715e-09
-2.98056e-10
-8.77191e-10
-3.47224e-11
-2.65241e-10
9.35594e-11
-1.3327e-10
6.65115e-11
-6.14531e-10
7.04193e-10
-1.48408e-09
1.6645e-09
-2.76263e-09
2.74e-09
-4.4452e-09
3.81439e-09
-6.50847e-09
4.82194e-09
-8.91718e-09
5.7265e-09
-1.16294e-08
6.51168e-09
-1.46007e-08
7.17355e-09
-1.77866e-08
7.71579e-09
-2.11452e-08
8.14662e-09
-2.46375e-08
8.4766e-09
-2.82287e-08
8.71724e-09
-3.1888e-08
8.88004e-09
-3.55885e-08
8.97596e-09
-3.93071e-08
9.01506e-09
-4.30242e-08
9.00633e-09
-4.67232e-08
8.95757e-09
-5.039e-08
8.87538e-09
-5.40129e-08
8.76524e-09
-5.75819e-08
8.63167e-09
-6.10886e-08
8.47834e-09
-6.45256e-08
8.30816e-09
-6.78866e-08
8.12341e-09
-7.11662e-08
7.92585e-09
-7.43594e-08
7.71682e-09
-7.74617e-08
7.49736e-09
-8.0469e-08
7.26827e-09
-8.33774e-08
7.03017e-09
-8.61834e-08
6.78355e-09
-8.88835e-08
6.5288e-09
-9.14745e-08
6.26625e-09
-9.39532e-08
5.99622e-09
-9.63167e-08
5.71896e-09
-9.85621e-08
5.43475e-09
-1.00687e-07
5.14383e-09
-1.02688e-07
4.84646e-09
-1.04562e-07
4.54292e-09
-1.06309e-07
4.23346e-09
-1.07924e-07
3.91835e-09
-1.09407e-07
3.59788e-09
-1.10754e-07
3.27233e-09
-1.11965e-07
2.94202e-09
-1.13037e-07
2.60724e-09
-1.13968e-07
2.26834e-09
-1.14757e-07
1.92562e-09
-1.15403e-07
1.57941e-09
-1.15904e-07
1.23006e-09
-1.16259e-07
8.7792e-10
-1.16468e-07
5.23333e-10
-1.16528e-07
1.66664e-10
-1.16441e-07
-1.9172e-10
-1.16205e-07
-5.51443e-10
-1.15819e-07
-9.12114e-10
-1.15285e-07
-1.27333e-09
-1.14601e-07
-1.63467e-09
-1.13768e-07
-1.99571e-09
-1.12786e-07
-2.35601e-09
-1.11656e-07
-2.71512e-09
-1.10379e-07
-3.07258e-09
-1.08955e-07
-3.42792e-09
-1.07386e-07
-3.78065e-09
-1.05672e-07
-4.1303e-09
-1.03816e-07
-4.47636e-09
-1.01819e-07
-4.81832e-09
-9.9683e-08
-5.15568e-09
-9.74101e-08
-5.48793e-09
-9.50029e-08
-5.81451e-09
-9.24637e-08
-6.13488e-09
-8.97955e-08
-6.44845e-09
-8.70015e-08
-6.75461e-09
-8.40849e-08
-7.05268e-09
-8.10496e-08
-7.3419e-09
-7.78996e-08
-7.62141e-09
-7.46395e-08
-7.89019e-09
-7.12743e-08
-8.14703e-09
-6.78099e-08
-8.39045e-09
-6.42526e-08
-8.61862e-09
-6.06099e-08
-8.82929e-09
-5.68904e-08
-9.01969e-09
-5.31041e-08
-9.18642e-09
-4.92626e-08
-9.32533e-09
-4.53797e-08
-9.43142e-09
-4.14714e-08
-9.49872e-09
-3.75565e-08
-9.52023e-09
-3.3657e-08
-9.48782e-09
-2.97984e-08
-9.3923e-09
-2.601e-08
-9.22347e-09
-2.23252e-08
-8.9703e-09
-1.87812e-08
-8.62136e-09
-1.54194e-08
-8.16533e-09
-1.22841e-08
-7.59198e-09
-9.4218e-09
-6.89351e-09
-6.87906e-09
-6.06667e-09
-4.69981e-09
-5.11589e-09
-2.9212e-09
-4.05811e-09
-1.56835e-09
-2.93e-09
-6.47978e-10
-1.79756e-09
-1.41815e-10
-7.71403e-10
-4.82598e-11
-2.31409e-10
2.97919e-10
-9.4738e-10
1.42017e-09
-2.15156e-09
2.86868e-09
-3.84072e-09
4.42917e-09
-5.99635e-09
5.97001e-09
-8.58653e-09
7.41212e-09
-1.15699e-08
8.70988e-09
-1.48994e-08
9.84115e-09
-1.85254e-08
1.07996e-08
-2.23988e-08
1.15892e-08
-2.64722e-08
1.222e-08
-3.07017e-08
1.27061e-08
-3.50474e-08
1.30629e-08
-3.94737e-08
1.33064e-08
-4.39494e-08
1.34517e-08
-4.84475e-08
1.35131e-08
-5.29446e-08
1.35034e-08
-5.74207e-08
1.34337e-08
-6.18591e-08
1.33137e-08
-6.62453e-08
1.31515e-08
-7.05672e-08
1.29536e-08
-7.48144e-08
1.27255e-08
-7.89777e-08
1.24715e-08
-8.30495e-08
1.21952e-08
-8.70228e-08
1.18991e-08
-9.08915e-08
1.15855e-08
-9.46499e-08
1.12558e-08
-9.8293e-08
1.09114e-08
-1.01816e-07
1.05532e-08
-1.05215e-07
1.0182e-08
-1.08484e-07
9.79855e-09
-1.11621e-07
9.40328e-09
-1.14622e-07
8.99672e-09
-1.17482e-07
8.5793e-09
-1.20199e-07
8.15142e-09
-1.22768e-07
7.71349e-09
-1.25188e-07
7.26592e-09
-1.27454e-07
6.80912e-09
-1.29564e-07
6.3435e-09
-1.31515e-07
5.86946e-09
-1.33305e-07
5.38744e-09
-1.3493e-07
4.89789e-09
-1.3639e-07
4.40125e-09
-1.3768e-07
3.89801e-09
-1.38801e-07
3.38863e-09
-1.39749e-07
2.87362e-09
-1.40523e-07
2.35346e-09
-1.41121e-07
1.82867e-09
-1.41543e-07
1.29977e-09
-1.41787e-07
7.67304e-10
-1.41852e-07
2.31808e-10
-1.41738e-07
-3.06155e-10
-1.41443e-07
-8.46013e-10
-1.40968e-07
-1.38718e-09
-1.40313e-07
-1.92905e-09
-1.39476e-07
-2.47099e-09
-1.3846e-07
-3.01237e-09
-1.37263e-07
-3.55254e-09
-1.35887e-07
-4.09081e-09
-1.34333e-07
-4.62651e-09
-1.32602e-07
-5.15893e-09
-1.30696e-07
-5.68737e-09
-1.28615e-07
-6.2111e-09
-1.26362e-07
-6.72937e-09
-1.23939e-07
-7.24143e-09
-1.21348e-07
-7.74653e-09
-1.18592e-07
-8.24387e-09
-1.15674e-07
-8.73265e-09
-1.12597e-07
-9.21203e-09
-1.09364e-07
-9.68113e-09
-1.0598e-07
-1.0139e-08
-1.02448e-07
-1.05846e-08
-9.87729e-08
-1.10167e-08
-9.49602e-08
-1.14341e-08
-9.10153e-08
-1.18351e-08
-8.69445e-08
-1.22179e-08
-8.27547e-08
-1.25802e-08
-7.8454e-08
-1.29193e-08
-7.40515e-08
-1.32318e-08
-6.95577e-08
-1.35135e-08
-6.49849e-08
-1.37593e-08
-6.0347e-08
-1.39632e-08
-5.56608e-08
-1.41177e-08
-5.09453e-08
-1.42142e-08
-4.6223e-08
-1.42425e-08
-4.15199e-08
-1.41909e-08
-3.68658e-08
-1.40464e-08
-3.22948e-08
-1.37945e-08
-2.78452e-08
-1.34199e-08
-2.35598e-08
-1.29068e-08
-1.94852e-08
-1.22399e-08
-1.56712e-08
-1.14059e-08
-1.21697e-08
-1.0395e-08
-9.03241e-09
-9.20397e-09
-6.30856e-09
-7.83973e-09
-4.04149e-09
-6.32517e-09
-2.26476e-09
-4.70673e-09
-9.98476e-10
-3.06385e-09
-2.46835e-10
-1.52305e-09
-2.9509e-10
-3.2257e-10
6.20491e-10
-1.26087e-09
2.35847e-09
-2.78417e-09
4.39197e-09
-4.86415e-09
6.50915e-09
-7.46618e-09
8.57204e-09
-1.05478e-08
1.04937e-08
-1.40604e-08
1.22225e-08
-1.79515e-08
1.37323e-08
-2.21673e-08
1.50153e-08
-2.66543e-08
1.60761e-08
-3.13614e-08
1.69272e-08
-3.62411e-08
1.75858e-08
-4.12497e-08
1.80715e-08
-4.63481e-08
1.84047e-08
-5.15016e-08
1.86053e-08
-5.66803e-08
1.86918e-08
-6.18578e-08
1.86809e-08
-6.70117e-08
1.85876e-08
-7.21227e-08
1.84247e-08
-7.71743e-08
1.82031e-08
-8.21525e-08
1.79317e-08
-8.70451e-08
1.76181e-08
-9.18417e-08
1.72681e-08
-9.6533e-08
1.68865e-08
-1.01111e-07
1.64771e-08
-1.05568e-07
1.60429e-08
-1.09899e-07
1.55861e-08
-1.14096e-07
1.51085e-08
-1.18154e-07
1.46116e-08
-1.22069e-07
1.40966e-08
-1.25834e-07
1.35643e-08
-1.29447e-07
1.30156e-08
-1.32901e-07
1.24512e-08
-1.36194e-07
1.18717e-08
-1.3932e-07
1.12777e-08
-1.42276e-07
1.06698e-08
-1.45059e-07
1.00487e-08
-1.47665e-07
9.41476e-09
-1.5009e-07
8.76871e-09
-1.52331e-07
8.11109e-09
-1.54387e-07
7.44251e-09
-1.56252e-07
6.7636e-09
-1.57926e-07
6.07499e-09
-1.59405e-07
5.37733e-09
-1.60688e-07
4.67129e-09
-1.61772e-07
3.95754e-09
-1.62655e-07
3.23679e-09
-1.63336e-07
2.50973e-09
-1.63814e-07
1.77712e-09
-1.64086e-07
1.03967e-09
-1.64152e-07
2.98166e-10
-1.64012e-07
-4.4663e-10
-1.63664e-07
-1.19392e-09
-1.63108e-07
-1.94288e-09
-1.62345e-07
-2.69268e-09
-1.61373e-07
-3.44245e-09
-1.60194e-07
-4.19131e-09
-1.58808e-07
-4.93836e-09
-1.57217e-07
-5.68268e-09
-1.5542e-07
-6.42332e-09
-1.53419e-07
-7.15932e-09
-1.51217e-07
-7.88971e-09
-1.48815e-07
-8.61348e-09
-1.46214e-07
-9.32961e-09
-1.43419e-07
-1.00371e-08
-1.4043e-07
-1.07348e-08
-1.37253e-07
-1.14217e-08
-1.33889e-07
-1.20967e-08
-1.30342e-07
-1.27585e-08
-1.26617e-07
-1.3406e-08
-1.22718e-07
-1.40378e-08
-1.1865e-07
-1.46525e-08
-1.14419e-07
-1.52483e-08
-1.10029e-07
-1.58234e-08
-1.05489e-07
-1.63757e-08
-1.00804e-07
-1.69024e-08
-9.59841e-08
-1.74004e-08
-9.10376e-08
-1.78659e-08
-8.59752e-08
-1.82941e-08
-8.08093e-08
-1.86794e-08
-7.55538e-08
-1.90148e-08
-7.0225e-08
-1.9292e-08
-6.48416e-08
-1.9501e-08
-5.94255e-08
-1.96302e-08
-5.4002e-08
-1.9666e-08
-4.86001e-08
-1.95928e-08
-4.3253e-08
-1.93935e-08
-3.79984e-08
-1.90492e-08
-3.28783e-08
-1.85399e-08
-2.79395e-08
-1.78456e-08
-2.32325e-08
-1.69469e-08
-1.88113e-08
-1.58272e-08
-1.47318e-08
-1.44745e-08
-1.10504e-08
-1.28853e-08
-7.82179e-09
-1.10683e-08
-5.09645e-09
-9.05052e-09
-2.91846e-09
-6.88471e-09
-1.32399e-09
-4.65832e-09
-3.41866e-10
-2.50517e-09
-6.36952e-10
-4.03174e-10
1.02366e-09
-1.54323e-09
3.49854e-09
-3.3596e-09
6.20834e-09
-5.8005e-09
8.95005e-09
-8.81448e-09
1.1586e-08
-1.23476e-08
1.40268e-08
-1.63431e-08
1.6218e-08
-2.07429e-08
1.81321e-08
-2.54885e-08
1.9761e-08
-3.0523e-08
2.11107e-08
-3.57922e-08
2.21964e-08
-4.12455e-08
2.3039e-08
-4.68365e-08
2.36625e-08
-5.25235e-08
2.40917e-08
-5.82693e-08
2.43512e-08
-6.40416e-08
2.4464e-08
-6.98117e-08
2.44511e-08
-7.55554e-08
2.43313e-08
-8.12513e-08
2.41207e-08
-8.68813e-08
2.38331e-08
-9.24298e-08
2.34802e-08
-9.78832e-08
2.30715e-08
-1.0323e-07
2.26146e-08
-1.08459e-07
2.21159e-08
-1.13562e-07
2.15802e-08
-1.18531e-07
2.10115e-08
-1.23358e-07
2.04128e-08
-1.28036e-07
1.97865e-08
-1.32559e-07
1.91347e-08
-1.36921e-07
1.84588e-08
-1.41117e-07
1.77602e-08
-1.45141e-07
1.70399e-08
-1.48989e-07
1.6299e-08
-1.52656e-07
1.55383e-08
-1.56137e-07
1.47587e-08
-1.59428e-07
1.39608e-08
-1.62525e-07
1.31456e-08
-1.65424e-07
1.23138e-08
-1.68121e-07
1.14661e-08
-1.70613e-07
1.06034e-08
-1.72897e-07
9.7265e-09
-1.7497e-07
8.83614e-09
-1.76828e-07
7.93321e-09
-1.78469e-07
7.01855e-09
-1.79891e-07
6.09305e-09
-1.81091e-07
5.15759e-09
-1.82068e-07
4.21309e-09
-1.82818e-07
3.26048e-09
-1.83342e-07
2.30073e-09
-1.83637e-07
1.33481e-09
-1.83703e-07
3.63706e-10
-1.83538e-07
-6.1155e-10
-1.83142e-07
-1.58992e-09
-1.82514e-07
-2.57033e-09
-1.81655e-07
-3.55168e-09
-1.80565e-07
-4.53285e-09
-1.79243e-07
-5.51269e-09
-1.77692e-07
-6.49002e-09
-1.75911e-07
-7.46363e-09
-1.73902e-07
-8.43231e-09
-1.71666e-07
-9.3948e-09
-1.69206e-07
-1.03498e-08
-1.66524e-07
-1.12961e-08
-1.63621e-07
-1.22322e-08
-1.60501e-07
-1.31569e-08
-1.57167e-07
-1.40688e-08
-1.53622e-07
-1.49664e-08
-1.49871e-07
-1.58483e-08
-1.45916e-07
-1.67128e-08
-1.41764e-07
-1.75585e-08
-1.37419e-07
-1.83834e-08
-1.32885e-07
-1.91856e-08
-1.28171e-07
-1.9963e-08
-1.23281e-07
-2.07131e-08
-1.18224e-07
-2.14328e-08
-1.13007e-07
-2.21188e-08
-1.07641e-07
-2.27669e-08
-1.02135e-07
-2.3372e-08
-9.65009e-08
-2.3928e-08
-9.07528e-08
-2.44275e-08
-8.4906e-08
-2.48616e-08
-7.89785e-08
-2.52195e-08
-7.2991e-08
-2.54886e-08
-6.69673e-08
-2.5654e-08
-6.09348e-08
-2.56984e-08
-5.49251e-08
-2.56026e-08
-4.89738e-08
-2.53448e-08
-4.31214e-08
-2.49016e-08
-3.74128e-08
-2.42486e-08
-3.18975e-08
-2.33609e-08
-2.66292e-08
-2.22152e-08
-2.16652e-08
-2.07911e-08
-1.70652e-08
-1.90745e-08
-1.289e-08
-1.70605e-08
-9.20014e-09
-1.47582e-08
-6.05411e-09
-1.21965e-08
-3.50762e-09
-9.4312e-09
-1.61354e-09
-6.55239e-09
-4.24321e-10
-3.69439e-09
-1.06128e-09
-4.72412e-10
1.49607e-09
-1.79054e-09
4.81667e-09
-3.86922e-09
8.28702e-09
-6.63592e-09
1.17167e-08
-1.00232e-08
1.49733e-08
-1.39654e-08
1.7969e-08
-1.83975e-08
2.06501e-08
-2.3255e-08
2.29896e-08
-2.84752e-08
2.49811e-08
-3.39975e-08
2.6633e-08
-3.97648e-08
2.79637e-08
-4.57242e-08
2.89984e-08
-5.1827e-08
2.97653e-08
-5.80296e-08
3.02943e-08
-6.4293e-08
3.06145e-08
-7.05827e-08
3.07537e-08
-7.68687e-08
3.07371e-08
-8.31249e-08
3.05875e-08
-8.93287e-08
3.03245e-08
-9.54606e-08
2.9965e-08
-1.01504e-07
2.95233e-08
-1.07443e-07
2.9011e-08
-1.13266e-07
2.84378e-08
-1.18962e-07
2.78115e-08
-1.2452e-07
2.71382e-08
-1.29931e-07
2.64228e-08
-1.35188e-07
2.56693e-08
-1.40282e-07
2.48809e-08
-1.45207e-07
2.40599e-08
-1.49957e-07
2.32084e-08
-1.54525e-07
2.23282e-08
-1.58906e-07
2.14206e-08
-1.63094e-07
2.0487e-08
-1.67084e-07
1.95284e-08
-1.70871e-07
1.8546e-08
-1.74451e-07
1.75408e-08
-1.77819e-07
1.65137e-08
-1.80971e-07
1.54659e-08
-1.83903e-07
1.43982e-08
-1.86612e-07
1.33118e-08
-1.89093e-07
1.22075e-08
-1.91343e-07
1.10866e-08
-1.9336e-07
9.94991e-09
-1.9514e-07
8.79867e-09
-1.96681e-07
7.63395e-09
-1.9798e-07
6.45686e-09
-1.99035e-07
5.26857e-09
-1.99845e-07
4.07026e-09
-2.00408e-07
2.86311e-09
-2.00721e-07
1.64838e-09
-2.00785e-07
4.27297e-10
-2.00598e-07
-7.98842e-10
-2.00159e-07
-2.02873e-09
-1.99468e-07
-3.26102e-09
-1.98525e-07
-4.49433e-09
-1.97331e-07
-5.72726e-09
-1.95885e-07
-6.95835e-09
-1.94189e-07
-8.18615e-09
-1.92244e-07
-9.40914e-09
-1.9005e-07
-1.06258e-08
-1.8761e-07
-1.18345e-08
-1.84926e-07
-1.30338e-08
-1.82001e-07
-1.42219e-08
-1.78836e-07
-1.53972e-08
-1.75435e-07
-1.6558e-08
-1.71801e-07
-1.77026e-08
-1.67938e-07
-1.88291e-08
-1.63851e-07
-1.99357e-08
-1.59543e-07
-2.10204e-08
-1.5502e-07
-2.20812e-08
-1.50288e-07
-2.31157e-08
-1.45352e-07
-2.41216e-08
-1.40219e-07
-2.50959e-08
-1.34897e-07
-2.60356e-08
-1.29393e-07
-2.69369e-08
-1.23716e-07
-2.77955e-08
-1.17877e-07
-2.8606e-08
-1.11887e-07
-2.93622e-08
-1.05758e-07
-3.00564e-08
-9.95062e-08
-3.06794e-08
-9.31476e-08
-3.12202e-08
-8.67016e-08
-3.16656e-08
-8.01903e-08
-3.19999e-08
-7.36392e-08
-3.2205e-08
-6.70776e-08
-3.22601e-08
-6.05386e-08
-3.21416e-08
-5.406e-08
-3.18234e-08
-4.7684e-08
-3.12775e-08
-4.1458e-08
-3.04746e-08
-3.54338e-08
-2.93852e-08
-2.96675e-08
-2.79814e-08
-2.42195e-08
-2.62391e-08
-1.91531e-08
-2.4141e-08
-1.45335e-08
-2.16801e-08
-1.04276e-08
-1.88642e-08
-6.9022e-09
-1.57219e-08
-4.02487e-09
-1.23085e-08
-1.8644e-09
-8.71286e-09
-4.94167e-10
-5.06462e-09
-1.55545e-09
-5.30979e-10
2.02704e-09
-2.00331e-09
6.289e-09
-4.31248e-09
1.05962e-08
-7.36832e-09
1.47726e-08
-1.10891e-08
1.86941e-08
-1.53978e-08
2.22778e-08
-2.0221e-08
2.54733e-08
-2.54882e-08
2.82567e-08
-3.11317e-08
3.06247e-08
-3.70877e-08
3.2589e-08
-4.32964e-08
3.41724e-08
-4.97024e-08
3.54044e-08
-5.62555e-08
3.63184e-08
-6.29101e-08
3.69489e-08
-6.96259e-08
3.73303e-08
-7.6367e-08
3.74948e-08
-8.31023e-08
3.74723e-08
-8.98042e-08
3.72894e-08
-9.64491e-08
3.69694e-08
-1.03016e-07
3.65323e-08
-1.09488e-07
3.59951e-08
-1.15849e-07
3.53717e-08
-1.22085e-07
3.46738e-08
-1.28184e-07
3.39106e-08
-1.34136e-07
3.30897e-08
-1.3993e-07
3.22171e-08
-1.45558e-07
3.12977e-08
-1.51013e-07
3.03351e-08
-1.56285e-07
2.93327e-08
-1.6137e-07
2.82928e-08
-1.66259e-07
2.72177e-08
-1.70948e-07
2.61091e-08
-1.75429e-07
2.49686e-08
-1.79699e-07
2.37977e-08
-1.8375e-07
2.25977e-08
-1.87579e-07
2.13699e-08
-1.91181e-07
2.01156e-08
-1.94552e-07
1.88361e-08
-1.97686e-07
1.75325e-08
-2.0058e-07
1.62061e-08
-2.03231e-07
1.48581e-08
-2.05634e-07
1.349e-08
-2.07787e-07
1.21028e-08
-2.09687e-07
1.06981e-08
-2.1133e-07
9.27707e-09
-2.12714e-07
7.84116e-09
-2.13837e-07
6.39176e-09
-2.14697e-07
4.93032e-09
-2.15292e-07
3.45831e-09
-2.15621e-07
1.97721e-09
-2.15682e-07
4.88552e-10
-2.15475e-07
-1.00609e-09
-2.14999e-07
-2.50513e-09
-2.14253e-07
-4.00692e-09
-2.13237e-07
-5.50979e-09
-2.11953e-07
-7.01203e-09
-2.10399e-07
-8.51188e-09
-2.08578e-07
-1.00076e-08
-2.0649e-07
-1.14973e-08
-2.04136e-07
-1.29791e-08
-2.0152e-07
-1.44512e-08
-1.98642e-07
-1.59115e-08
-1.95506e-07
-1.73582e-08
-1.92114e-07
-1.87892e-08
-1.88469e-07
-2.02024e-08
-1.84576e-07
-2.15957e-08
-1.80438e-07
-2.29668e-08
-1.76061e-07
-2.43136e-08
-1.71447e-07
-2.56335e-08
-1.66605e-07
-2.69241e-08
-1.61538e-07
-2.81826e-08
-1.56253e-07
-2.94059e-08
-1.50759e-07
-3.05905e-08
-1.45062e-07
-3.17326e-08
-1.39171e-07
-3.28277e-08
-1.33096e-07
-3.38703e-08
-1.26848e-07
-3.48541e-08
-1.20439e-07
-3.57714e-08
-1.13882e-07
-3.6613e-08
-1.07194e-07
-3.73677e-08
-1.00392e-07
-3.80224e-08
-9.34962e-08
-3.85613e-08
-8.65301e-08
-3.89659e-08
-7.95206e-08
-3.92146e-08
-7.2498e-08
-3.92827e-08
-6.5497e-08
-3.91425e-08
-5.85569e-08
-3.87635e-08
-5.17215e-08
-3.81129e-08
-4.50399e-08
-3.71562e-08
-3.85659e-08
-3.58592e-08
-3.23581e-08
-3.41892e-08
-2.64795e-08
-3.21178e-08
-2.09969e-08
-2.96236e-08
-1.59805e-08
-2.66964e-08
-1.15033e-08
-2.33415e-08
-7.64062e-09
-1.95846e-08
-4.47114e-09
-1.5478e-08
-2.07807e-09
-1.11059e-08
-5.52467e-10
-6.59023e-09
-2.10791e-09
-5.80062e-10
2.6071e-09
-2.18436e-09
7.8933e-09
-4.69343e-09
1.31053e-08
-8.00276e-09
1.80819e-08
-1.2018e-08
2.27093e-08
-1.66521e-08
2.69119e-08
-2.18235e-08
3.06447e-08
-2.74554e-08
3.38886e-08
-3.34757e-08
3.66449e-08
-3.98169e-08
3.89302e-08
-4.64165e-08
4.0772e-08
-5.32172e-08
4.22051e-08
-6.01669e-08
4.3268e-08
-6.72187e-08
4.40007e-08
-7.43309e-08
4.44426e-08
-8.14669e-08
4.46308e-08
-8.85941e-08
4.45995e-08
-9.56844e-08
4.43797e-08
-1.02713e-07
4.39981e-08
-1.09659e-07
4.34781e-08
-1.16503e-07
4.28392e-08
-1.23229e-07
4.20979e-08
-1.29823e-07
4.12677e-08
-1.36272e-07
4.03595e-08
-1.42564e-07
3.93823e-08
-1.4869e-07
3.83431e-08
-1.5464e-07
3.72478e-08
-1.60406e-07
3.61009e-08
-1.6598e-07
3.49062e-08
-1.71354e-07
3.36668e-08
-1.76521e-07
3.23852e-08
-1.81476e-07
3.10636e-08
-1.86211e-07
2.9704e-08
-1.90722e-07
2.83082e-08
-1.95002e-07
2.68778e-08
-1.99046e-07
2.54144e-08
-2.0285e-07
2.39195e-08
-2.06409e-07
2.23946e-08
-2.09718e-07
2.08413e-08
-2.12772e-07
1.92609e-08
-2.15569e-07
1.76551e-08
-2.18105e-07
1.60254e-08
-2.20375e-07
1.43733e-08
-2.22378e-07
1.27004e-08
-2.24109e-07
1.10083e-08
-2.25566e-07
9.29872e-09
-2.26748e-07
7.57327e-09
-2.27651e-07
5.83368e-09
-2.28275e-07
4.0817e-09
-2.28617e-07
2.3191e-09
-2.28676e-07
5.47689e-10
-2.28451e-07
-1.23067e-09
-2.27942e-07
-3.01407e-09
-2.27149e-07
-4.80057e-09
-2.2607e-07
-6.58819e-09
-2.24707e-07
-8.3749e-09
-2.23061e-07
-1.01586e-08
-2.21131e-07
-1.19372e-08
-2.1892e-07
-1.37086e-08
-2.16428e-07
-1.54705e-08
-2.13659e-07
-1.72206e-08
-2.10613e-07
-1.89567e-08
-2.07295e-07
-2.06765e-08
-2.03707e-07
-2.23774e-08
-1.99852e-07
-2.40571e-08
-1.95735e-07
-2.5713e-08
-1.91359e-07
-2.73424e-08
-1.8673e-07
-2.89428e-08
-1.81853e-07
-3.05111e-08
-1.76733e-07
-3.20442e-08
-1.71376e-07
-3.3539e-08
-1.6579e-07
-3.49917e-08
-1.59982e-07
-3.63983e-08
-1.53961e-07
-3.7754e-08
-1.47735e-07
-3.90534e-08
-1.41316e-07
-4.02902e-08
-1.34713e-07
-4.14567e-08
-1.2794e-07
-4.2544e-08
-1.21012e-07
-4.35411e-08
-1.13945e-07
-4.44351e-08
-1.06757e-07
-4.52104e-08
-9.94694e-08
-4.58486e-08
-9.2107e-08
-4.63283e-08
-8.46972e-08
-4.66244e-08
-7.72715e-08
-4.67084e-08
-6.98656e-08
-4.65484e-08
-6.252e-08
-4.61091e-08
-5.52801e-08
-4.53528e-08
-4.81962e-08
-4.42401e-08
-4.1324e-08
-4.27313e-08
-3.47245e-08
-4.07888e-08
-2.84632e-08
-3.8379e-08
-2.26108e-08
-3.5476e-08
-1.7242e-08
-3.20652e-08
-1.2436e-08
-2.81474e-08
-8.27642e-09
-2.37442e-08
-4.8519e-09
-1.89025e-08
-2.25818e-09
-1.36996e-08
-6.00699e-10
-8.24771e-09
-2.70861e-09
-6.20912e-10
3.22802e-09
-2.33737e-09
9.60974e-09
-5.01849e-09
1.57864e-08
-8.54828e-09
2.16117e-08
-1.28218e-08
2.69829e-08
-1.7743e-08
3.18331e-08
-2.32229e-08
3.61246e-08
-2.91788e-08
3.98445e-08
-3.55338e-08
4.3e-08
-4.22172e-08
4.56136e-08
-4.91637e-08
4.77185e-08
-5.63138e-08
4.93552e-08
-6.36139e-08
5.05681e-08
-7.1016e-08
5.14028e-08
-7.84772e-08
5.19037e-08
-8.59597e-08
5.21133e-08
-9.34305e-08
5.20703e-08
-1.00861e-07
5.18097e-08
-1.08225e-07
5.13622e-08
-1.15501e-07
5.07541e-08
-1.22669e-07
5.00079e-08
-1.29714e-07
4.91423e-08
-1.36619e-07
4.8173e-08
-1.43372e-07
4.71126e-08
-1.49961e-07
4.59712e-08
-1.56375e-07
4.47573e-08
-1.62605e-07
4.34775e-08
-1.68641e-07
4.21372e-08
-1.74476e-07
4.07409e-08
-1.80101e-07
3.92921e-08
-1.8551e-07
3.77939e-08
-1.90695e-07
3.6249e-08
-1.95651e-07
3.46597e-08
-2.00371e-07
3.3028e-08
-2.04849e-07
3.13561e-08
-2.0908e-07
2.96456e-08
-2.13059e-07
2.78985e-08
-2.16781e-07
2.61165e-08
-2.20241e-07
2.43015e-08
-2.23436e-07
2.2455e-08
-2.2636e-07
2.05791e-08
-2.2901e-07
1.86754e-08
-2.31382e-07
1.67457e-08
-2.33474e-07
1.4792e-08
-2.35281e-07
1.28162e-08
-2.36803e-07
1.082e-08
-2.38035e-07
8.80562e-09
-2.38976e-07
6.77489e-09
-2.39625e-07
4.72989e-09
-2.39978e-07
2.67269e-09
-2.40036e-07
6.05406e-10
-2.39797e-07
-1.46981e-09
-2.3926e-07
-3.55073e-09
-2.38426e-07
-5.63511e-09
-2.37293e-07
-7.72063e-09
-2.35863e-07
-9.80494e-09
-2.34136e-07
-1.18856e-08
-2.32113e-07
-1.39602e-08
-2.29795e-07
-1.60262e-08
-2.27185e-07
-1.80811e-08
-2.24283e-07
-2.01221e-08
-2.21093e-07
-2.21467e-08
-2.17618e-07
-2.41521e-08
-2.1386e-07
-2.61354e-08
-2.09823e-07
-2.80939e-08
-2.05511e-07
-3.00245e-08
-2.00929e-07
-3.19242e-08
-1.96082e-07
-3.37898e-08
-1.90976e-07
-3.56179e-08
-1.85615e-07
-3.74049e-08
-1.80007e-07
-3.91469e-08
-1.74159e-07
-4.08396e-08
-1.68079e-07
-4.24783e-08
-1.61776e-07
-4.40574e-08
-1.55258e-07
-4.55706e-08
-1.48538e-07
-4.70106e-08
-1.41626e-07
-4.83684e-08
-1.34537e-07
-4.96336e-08
-1.27284e-07
-5.07937e-08
-1.19886e-07
-5.18337e-08
-1.1236e-07
-5.27357e-08
-1.0473e-07
-5.34788e-08
-9.70201e-08
-5.40383e-08
-8.92586e-08
-5.43859e-08
-8.1478e-08
-5.4489e-08
-7.37151e-08
-5.43113e-08
-6.60113e-08
-5.38129e-08
-5.84131e-08
-5.2951e-08
-5.09724e-08
-5.16808e-08
-4.37467e-08
-4.99571e-08
-3.67988e-08
-4.77366e-08
-3.01974e-08
-4.49804e-08
-2.40166e-08
-4.16569e-08
-1.83358e-08
-3.7746e-08
-1.32401e-08
-3.32431e-08
-8.82056e-09
-2.81638e-08
-5.17487e-09
-2.25482e-08
-2.40924e-09
-1.64653e-08
-6.4046e-10
-1.00165e-08
-3.34907e-09
-6.54818e-10
3.88284e-09
-2.4663e-09
1.14212e-08
-5.29504e-09
1.86151e-08
-9.01595e-09
2.53326e-08
-1.35154e-08
3.14823e-08
-1.86893e-08
3.7007e-08
-2.4442e-08
4.18773e-08
-3.06854e-08
4.60879e-08
-3.73383e-08
4.96529e-08
-4.43262e-08
5.26015e-08
-5.15814e-08
5.49737e-08
-5.90424e-08
5.68162e-08
-6.66539e-08
5.81796e-08
-7.43665e-08
5.91154e-08
-8.21366e-08
5.96738e-08
-8.99256e-08
5.99023e-08
-9.76995e-08
5.98443e-08
-1.05429e-07
5.95392e-08
-1.13088e-07
5.90212e-08
-1.20654e-07
5.83202e-08
-1.28108e-07
5.74614e-08
-1.35431e-07
5.64659e-08
-1.42609e-07
5.53513e-08
-1.49629e-07
5.41319e-08
-1.56477e-07
5.28195e-08
-1.63143e-07
5.14235e-08
-1.69617e-07
4.99516e-08
-1.7589e-07
4.841e-08
-1.81953e-07
4.68037e-08
-1.87798e-07
4.5137e-08
-1.93417e-07
4.34134e-08
-1.98804e-07
4.16361e-08
-2.03952e-07
3.98077e-08
-2.08855e-07
3.79307e-08
-2.13506e-07
3.60074e-08
-2.17901e-07
3.404e-08
-2.22033e-07
3.20306e-08
-2.25898e-07
2.99812e-08
-2.2949e-07
2.7894e-08
-2.32806e-07
2.5771e-08
-2.35841e-07
2.36142e-08
-2.38591e-07
2.14257e-08
-2.41053e-07
1.92077e-08
-2.43224e-07
1.69622e-08
-2.45099e-07
1.46914e-08
-2.46676e-07
1.23976e-08
-2.47954e-07
1.0083e-08
-2.48929e-07
7.74986e-09
-2.49599e-07
5.40052e-09
-2.49964e-07
3.03735e-09
-2.50021e-07
6.62777e-10
-2.4977e-07
-1.72072e-09
-2.49211e-07
-4.11061e-09
-2.48341e-07
-6.50432e-09
-2.47163e-07
-8.8992e-09
-2.45675e-07
-1.12926e-08
-2.43879e-07
-1.36816e-08
-2.41776e-07