/*--------------------------------*- C++ -*----------------------------------*\
| =========                 |                                                 |
| \\      /  F ield         | OpenFOAM: The Open Source CFD Toolbox           |
|  \\    /   O peration     | Version:  2512                                  |
|   \\  /    A nd           | Website:  www.openfoam.com                      |
|    \\/     M anipulation  |                                                 |
\*---------------------------------------------------------------------------*/
FoamFile
{
    version     2.0;
    format      ascii;
    arch        "LSB;label=32;scalar=64";
    class       volVectorField;
    location    "0.04";
    object      U;
}
// * * * * * * * * * * * * * * * * * * * * * * * * * * * * * * * * * * * * * //

dimensions      [0 1 -1 0 0 0 0];

internalField   nonuniform List<vector> 
10000
(
(9.54534e-07 -7.22821e-06 0)
(1.20309e-05 -8.42299e-06 0)
(1.41648e-05 -2.59895e-06 0)
(8.65385e-06 1.85098e-06 0)
(-9.8749e-06 5.88404e-06 0)
(-3.81357e-05 9.25358e-06 0)
(-7.49869e-05 1.19802e-05 0)
(-0.000119082 1.41544e-05 0)
(-0.000169105 1.58544e-05 0)
(-0.00022388 1.71603e-05 0)
(-0.000282353 1.81506e-05 0)
(-0.000343615 1.8878e-05 0)
(-0.000406882 1.93643e-05 0)
(-0.000471482 1.96324e-05 0)
(-0.000536859 1.97346e-05 0)
(-0.00060256 1.97284e-05 0)
(-0.000668216 1.96455e-05 0)
(-0.000733523 1.94904e-05 0)
(-0.000798225 1.92624e-05 0)
(-0.000862116 1.89712e-05 0)
(-0.000925035 1.86336e-05 0)
(-0.000986845 1.82659e-05 0)
(-0.00104743 1.7879e-05 0)
(-0.00110671 1.74746e-05 0)
(-0.00116457 1.70478e-05 0)
(-0.00122096 1.65962e-05 0)
(-0.00127581 1.61225e-05 0)
(-0.00132904 1.56321e-05 0)
(-0.0013806 1.51289e-05 0)
(-0.00143043 1.46122e-05 0)
(-0.00147847 1.40788e-05 0)
(-0.00152467 1.35272e-05 0)
(-0.00156898 1.29585e-05 0)
(-0.00161134 1.23744e-05 0)
(-0.0016517 1.17758e-05 0)
(-0.00169001 1.11632e-05 0)
(-0.00172623 1.05361e-05 0)
(-0.0017603 9.89479e-06 0)
(-0.00179218 9.23978e-06 0)
(-0.00182183 8.57197e-06 0)
(-0.00184921 7.89166e-06 0)
(-0.00187428 7.19907e-06 0)
(-0.001897 6.4953e-06 0)
(-0.00191733 5.78193e-06 0)
(-0.00193525 5.05978e-06 0)
(-0.00195072 4.32874e-06 0)
(-0.00196371 3.58869e-06 0)
(-0.00197421 2.84053e-06 0)
(-0.00198218 2.08583e-06 0)
(-0.00198761 1.32579e-06 0)
(-0.00199049 5.60627e-07 0)
(-0.00199078 -2.09831e-07 0)
(-0.00198848 -9.8529e-07 0)
(-0.00198359 -1.76462e-06 0)
(-0.00197608 -2.54624e-06 0)
(-0.00196597 -3.32906e-06 0)
(-0.00195323 -4.11272e-06 0)
(-0.00193789 -4.89674e-06 0)
(-0.00191993 -5.68011e-06 0)
(-0.00189937 -6.46122e-06 0)
(-0.00187621 -7.23831e-06 0)
(-0.00185049 -8.01018e-06 0)
(-0.0018222 -8.77613e-06 0)
(-0.00179138 -9.53524e-06 0)
(-0.00175805 -1.02863e-05 0)
(-0.00172224 -1.10278e-05 0)
(-0.00168399 -1.17582e-05 0)
(-0.00164334 -1.24763e-05 0)
(-0.00160031 -1.31812e-05 0)
(-0.00155497 -1.38721e-05 0)
(-0.00150737 -1.45482e-05 0)
(-0.00145754 -1.52084e-05 0)
(-0.00140556 -1.58513e-05 0)
(-0.00135148 -1.64753e-05 0)
(-0.00129538 -1.70789e-05 0)
(-0.00123733 -1.76604e-05 0)
(-0.00117741 -1.82179e-05 0)
(-0.00111571 -1.87485e-05 0)
(-0.00105235 -1.92477e-05 0)
(-0.00098744 -1.97097e-05 0)
(-0.000921132 -2.01269e-05 0)
(-0.000853597 -2.0491e-05 0)
(-0.000785041 -2.07914e-05 0)
(-0.000715709 -2.10142e-05 0)
(-0.0006459 -2.11413e-05 0)
(-0.000575971 -2.11503e-05 0)
(-0.000506355 -2.10157e-05 0)
(-0.000437566 -2.07078e-05 0)
(-0.000370217 -2.01914e-05 0)
(-0.00030503 -1.94249e-05 0)
(-0.000242849 -1.83605e-05 0)
(-0.000184649 -1.69452e-05 0)
(-0.000131535 -1.51213e-05 0)
(-8.47422e-05 -1.28291e-05 0)
(-4.56071e-05 -1.00145e-05 0)
(-1.54999e-05 -6.65531e-06 0)
(4.31449e-06 -2.82547e-06 0)
(1.30602e-05 1.17114e-06 0)
(1.16153e-05 4.42521e-06 0)
(4.31994e-06 4.31886e-06 0)
(1.6062e-07 -1.03143e-05 0)
(2.34492e-06 -1.16432e-05 0)
(-8.65828e-06 6.80213e-06 0)
(-4.26263e-05 2.67629e-05 0)
(-0.000101341 4.64154e-05 0)
(-0.000183381 6.41706e-05 0)
(-0.000286521 7.95083e-05 0)
(-0.000408037 9.23596e-05 0)
(-0.000545069 0.00010284 0)
(-0.000694807 0.00011116 0)
(-0.000854677 0.000117584 0)
(-0.00102236 0.000122368 0)
(-0.00119579 0.00012574 0)
(-0.0013732 0.0001279 0)
(-0.00155309 0.000129044 0)
(-0.0017342 0.000129363 0)
(-0.00191547 0.000129015 0)
(-0.00209602 0.000128125 0)
(-0.00227512 0.000126782 0)
(-0.00245217 0.000125062 0)
(-0.00262667 0.000123031 0)
(-0.00279823 0.000120745 0)
(-0.00296648 0.00011825 0)
(-0.00313114 0.000115579 0)
(-0.00329194 0.000112748 0)
(-0.00344865 0.000109769 0)
(-0.00360106 0.000106651 0)
(-0.003749 0.000103407 0)
(-0.00389226 0.000100048 0)
(-0.00403069 9.6575e-05 0)
(-0.00416411 9.29909e-05 0)
(-0.00429239 8.92975e-05 0)
(-0.00441535 8.54984e-05 0)
(-0.00453286 8.15972e-05 0)
(-0.00464477 7.75969e-05 0)
(-0.00475095 7.35001e-05 0)
(-0.00485126 6.93097e-05 0)
(-0.00494559 6.50295e-05 0)
(-0.00503379 6.06635e-05 0)
(-0.00511576 5.62151e-05 0)
(-0.00519139 5.16875e-05 0)
(-0.00526056 4.7084e-05 0)
(-0.00532318 4.24094e-05 0)
(-0.00537915 3.76697e-05 0)
(-0.0054284 3.28698e-05 0)
(-0.00547082 2.80136e-05 0)
(-0.00550636 2.31048e-05 0)
(-0.00553493 1.81479e-05 0)
(-0.00555649 1.31485e-05 0)
(-0.00557098 8.11178e-06 0)
(-0.00557834 3.04241e-06 0)
(-0.00557854 -2.05546e-06 0)
(-0.00557154 -7.17733e-06 0)
(-0.00555732 -1.23179e-05 0)
(-0.00553586 -1.7471e-05 0)
(-0.00550714 -2.26303e-05 0)
(-0.00547118 -2.77898e-05 0)
(-0.00542797 -3.29436e-05 0)
(-0.00537754 -3.80851e-05 0)
(-0.00531989 -4.32074e-05 0)
(-0.00525509 -4.8303e-05 0)
(-0.00518316 -5.33642e-05 0)
(-0.00510416 -5.83839e-05 0)
(-0.00501816 -6.33547e-05 0)
(-0.00492524 -6.8269e-05 0)
(-0.00482547 -7.31196e-05 0)
(-0.00471897 -7.78986e-05 0)
(-0.00460582 -8.25984e-05 0)
(-0.00448615 -8.72116e-05 0)
(-0.0043601 -9.17307e-05 0)
(-0.00422779 -9.61474e-05 0)
(-0.00408939 -0.000100453 0)
(-0.00394505 -0.000104639 0)
(-0.00379496 -0.000108695 0)
(-0.00363932 -0.000112607 0)
(-0.00347834 -0.000116361 0)
(-0.00331228 -0.000119939 0)
(-0.00314139 -0.000123317 0)
(-0.00296602 -0.000126464 0)
(-0.0027865 -0.000129343 0)
(-0.00260328 -0.000131903 0)
(-0.00241686 -0.000134087 0)
(-0.00222782 -0.000135819 0)
(-0.00203688 -0.00013701 0)
(-0.00184489 -0.00013755 0)
(-0.00165284 -0.000137309 0)
(-0.00146193 -0.000136133 0)
(-0.00127358 -0.000133847 0)
(-0.00108941 -0.000130252 0)
(-0.00091135 -0.00012513 0)
(-0.000741569 -0.000118245 0)
(-0.000582524 -0.000109355 0)
(-0.000436922 -9.82294e-05 0)
(-0.000307658 -8.46798e-05 0)
(-0.000197694 -6.86251e-05 0)
(-0.000109829 -5.02196e-05 0)
(-4.62872e-05 -3.01096e-05 0)
(-7.96766e-06 -9.89202e-06 0)
(6.87255e-06 6.83519e-06 0)
(4.44609e-06 1.16036e-05 0)
(4.05838e-08 -1.16523e-05 0)
(-1.02853e-05 4.03326e-06 0)
(-4.83619e-05 4.42585e-05 0)
(-0.000117788 9.22973e-05 0)
(-0.000220805 0.000140649 0)
(-0.000356411 0.000185616 0)
(-0.000522008 0.000225458 0)
(-0.000714165 0.000259536 0)
(-0.000929072 0.00028785 0)
(-0.00116291 0.000310715 0)
(-0.00141205 0.000328619 0)
(-0.00167315 0.000342141 0)
(-0.00194321 0.000351847 0)
(-0.00221961 0.000358271 0)
(-0.00250004 0.000361912 0)
(-0.00278257 0.000363222 0)
(-0.00306556 0.0003626 0)
(-0.00334763 0.000360383 0)
(-0.00362764 0.000356852 0)
(-0.0039046 0.000352233 0)
(-0.00417772 0.000346706 0)
(-0.00444633 0.000340419 0)
(-0.00470986 0.000333492 0)
(-0.0049678 0.000326015 0)
(-0.00521973 0.000318054 0)
(-0.00546528 0.000309656 0)
(-0.0057041 0.000300859 0)
(-0.00593587 0.000291691 0)
(-0.00616031 0.000282176 0)
(-0.00637713 0.000272328 0)
(-0.00658609 0.000262161 0)
(-0.00678692 0.000251684 0)
(-0.0069794 0.00024091 0)
(-0.00716328 0.000229847 0)
(-0.00733835 0.000218504 0)
(-0.00750439 0.000206892 0)
(-0.00766119 0.000195017 0)
(-0.00780857 0.000182892 0)
(-0.00794632 0.000170527 0)
(-0.00807428 0.000157933 0)
(-0.00819225 0.000145119 0)
(-0.00830009 0.000132098 0)
(-0.00839763 0.000118879 0)
(-0.00848474 0.000105478 0)
(-0.00856127 9.19081e-05 0)
(-0.0086271 7.81814e-05 0)
(-0.00868212 6.4311e-05 0)
(-0.00872622 5.03101e-05 0)
(-0.00875931 3.61921e-05 0)
(-0.00878131 2.19714e-05 0)
(-0.00879214 7.66205e-06 0)
(-0.00879175 -6.72191e-06 0)
(-0.00878009 -2.11658e-05 0)
(-0.00875711 -3.56542e-05 0)
(-0.00872281 -5.0171e-05 0)
(-0.00867716 -6.46994e-05 0)
(-0.00862018 -7.92221e-05 0)
(-0.00855187 -9.37213e-05 0)
(-0.00847227 -0.000108179 0)
(-0.00838143 -0.000122576 0)
(-0.0082794 -0.000136892 0)
(-0.00816625 -0.000151109 0)
(-0.00804208 -0.000165205 0)
(-0.00790699 -0.000179161 0)
(-0.00776111 -0.000192955 0)
(-0.00760456 -0.000206568 0)
(-0.0074375 -0.000219978 0)
(-0.0072601 -0.000233164 0)
(-0.00707254 -0.000246104 0)
(-0.00687504 -0.000258775 0)
(-0.0066678 -0.000271154 0)
(-0.00645108 -0.000283215 0)
(-0.00622513 -0.000294929 0)
(-0.00599025 -0.000306264 0)
(-0.00574676 -0.000317182 0)
(-0.00549501 -0.000327638 0)
(-0.0052354 -0.000337574 0)
(-0.00496838 -0.000346919 0)
(-0.00469446 -0.000355586 0)
(-0.00441423 -0.000363465 0)
(-0.00412837 -0.000370418 0)
(-0.0038377 -0.000376275 0)
(-0.00354317 -0.00038083 0)
(-0.00324589 -0.000383834 0)
(-0.00294719 -0.000384989 0)
(-0.00264864 -0.000383946 0)
(-0.00235207 -0.0003803 0)
(-0.00205962 -0.000373595 0)
(-0.00177379 -0.000363327 0)
(-0.0014974 -0.000348953 0)
(-0.00123365 -0.000329915 0)
(-0.000986071 -0.000305675 0)
(-0.00075848 -0.000275769 0)
(-0.00055486 -0.000239907 0)
(-0.000379161 -0.000198143 0)
(-0.000234985 -0.000151155 0)
(-0.00012504 -0.000100756 0)
(-5.03488e-05 -5.06574e-05 0)
(-9.67744e-06 -7.93021e-06 0)
(1.24162e-06 1.31144e-05 0)
(-2.98337e-06 -1.62875e-06 0)
(-2.83859e-05 4.08799e-05 0)
(-9.4997e-05 0.000114684 0)
(-0.000202383 0.000199698 0)
(-0.000350746 0.000285218 0)
(-0.000538724 0.000365431 0)
(-0.00076327 0.000437248 0)
(-0.00102039 0.000499369 0)
(-0.00130567 0.000551533 0)
(-0.0016146 0.000594091 0)
(-0.00194282 0.000627751 0)
(-0.00228627 0.000653411 0)
(-0.00264126 0.000672029 0)
(-0.0030045 0.000684553 0)
(-0.00337311 0.000691863 0)
(-0.00374459 0.000694755 0)
(-0.00411682 0.000693941 0)
(-0.004488 0.00069004 0)
(-0.00485661 0.000683576 0)
(-0.00522136 0.000674981 0)
(-0.00558119 0.000664604 0)
(-0.00593516 0.000652725 0)
(-0.00628251 0.000639568 0)
(-0.00662256 0.000625308 0)
(-0.00695472 0.000610079 0)
(-0.00727848 0.000593982 0)
(-0.00759336 0.000577097 0)
(-0.00789894 0.000559481 0)
(-0.00819481 0.00054118 0)
(-0.00848062 0.000522228 0)
(-0.00875601 0.000502654 0)
(-0.00902065 0.000482483 0)
(-0.00927421 0.000461737 0)
(-0.00951639 0.000440438 0)
(-0.0097469 0.000418602 0)
(-0.00996546 0.00039625 0)
(-0.0101718 0.0003734 0)
(-0.0103656 0.000350073 0)
(-0.0105468 0.000326288 0)
(-0.0107149 0.000302067 0)
(-0.0108699 0.00027743 0)
(-0.0110114 0.0002524 0)
(-0.0111394 0.000226999 0)
(-0.0112535 0.000201253 0)
(-0.0113537 0.000175185 0)
(-0.0114398 0.000148821 0)
(-0.0115116 0.000122187 0)
(-0.0115689 9.53075e-05 0)
(-0.0116118 6.82095e-05 0)
(-0.01164 4.09199e-05 0)
(-0.0116535 1.34665e-05 0)
(-0.0116522 -1.41225e-05 0)
(-0.011636 -4.1818e-05 0)
(-0.0116049 -6.95901e-05 0)
(-0.0115589 -9.74081e-05 0)
(-0.011498 -0.00012524 0)
(-0.0114221 -0.000153053 0)
(-0.0113314 -0.000180812 0)
(-0.0112258 -0.000208483 0)
(-0.0111054 -0.000236031 0)
(-0.0109703 -0.000263418 0)
(-0.0108206 -0.000290608 0)
(-0.0106564 -0.000317563 0)
(-0.0104779 -0.000344244 0)
(-0.0102852 -0.000370612 0)
(-0.0100785 -0.000396628 0)
(-0.00985801 -0.000422252 0)
(-0.00962394 -0.000447443 0)
(-0.00937655 -0.000472159 0)
(-0.00911611 -0.000496354 0)
(-0.00884292 -0.000519983 0)
(-0.0085573 -0.000542992 0)
(-0.00825961 -0.000565327 0)
(-0.00795024 -0.00058692 0)
(-0.00762962 -0.000607696 0)
(-0.00729822 -0.000627563 0)
(-0.00695659 -0.000646408 0)
(-0.00660533 -0.000664092 0)
(-0.00624514 -0.000680442 0)
(-0.0058768 -0.000695246 0)
(-0.00550124 -0.000708241 0)
(-0.00511954 -0.000719105 0)
(-0.00473296 -0.000727447 0)
(-0.00434297 -0.000732801 0)
(-0.0039513 -0.000734615 0)
(-0.00356 -0.000732248 0)
(-0.00317142 -0.00072497 0)
(-0.0027883 -0.000711961 0)
(-0.00241377 -0.000692333 0)
(-0.00205136 -0.000665154 0)
(-0.00170501 -0.000629489 0)
(-0.00137904 -0.000584475 0)
(-0.001078 -0.000529432 0)
(-0.000806622 -0.000464035 0)
(-0.000569506 -0.000388587 0)
(-0.000370839 -0.000304453 0)
(-0.000213821 -0.000214739 0)
(-9.99725e-05 -0.000125232 0)
(-2.96649e-05 -4.5979e-05 0)
(-2.70154e-06 4.54113e-06 0)
(-6.20161e-06 1.63144e-05 0)
(-4.68805e-05 0.000100854 0)
(-0.000142515 0.000218643 0)
(-0.00028788 0.000348502 0)
(-0.000480743 0.000477769 0)
(-0.000718905 0.00059902 0)
(-0.000998677 0.000708078 0)
(-0.00131551 0.000802973 0)
(-0.00166451 0.000883186 0)
(-0.00204069 0.000949093 0)
(-0.00243917 0.00100161 0)
(-0.00285535 0.00104194 0)
(-0.00328504 0.00107144 0)
(-0.00372446 0.00109147 0)
(-0.00417029 0.00110336 0)
(-0.0046196 0.00110831 0)
(-0.00506989 0.00110739 0)
(-0.00551901 0.00110154 0)
(-0.00596512 0.00109156 0)
(-0.00640667 0.00107813 0)
(-0.00684236 0.00106179 0)
(-0.00727105 0.00104301 0)
(-0.00769179 0.00102214 0)
(-0.00810373 0.000999446 0)
(-0.00850614 0.000975159 0)
(-0.00889838 0.000949445 0)
(-0.00927987 0.000922436 0)
(-0.00965007 0.000894234 0)
(-0.0100085 0.000864916 0)
(-0.0103547 0.000834541 0)
(-0.0106882 0.000803161 0)
(-0.0110086 0.00077082 0)
(-0.0113156 0.000737556 0)
(-0.0116087 0.000703403 0)
(-0.0118877 0.000668393 0)
(-0.0121521 0.000632559 0)
(-0.0124016 0.000595934 0)
(-0.0126359 0.00055855 0)
(-0.0128548 0.000520441 0)
(-0.0130579 0.000481638 0)
(-0.013245 0.000442178 0)
(-0.0134159 0.000402097 0)
(-0.0135702 0.000361431 0)
(-0.0137077 0.00032022 0)
(-0.0138283 0.000278502 0)
(-0.0139318 0.000236318 0)
(-0.0140179 0.000193708 0)
(-0.0140866 0.000150714 0)
(-0.0141376 0.000107379 0)
(-0.0141709 6.37468e-05 0)
(-0.0141864 1.98617e-05 0)
(-0.014184 -2.42305e-05 0)
(-0.0141635 -6.8483e-05 0)
(-0.0141251 -0.000112848 0)
(-0.0140685 -0.000157275 0)
(-0.0139939 -0.000201713 0)
(-0.0139013 -0.00024611 0)
(-0.0137906 -0.000290412 0)
(-0.0136619 -0.000334563 0)
(-0.0135154 -0.000378508 0)
(-0.0133512 -0.000422188 0)
(-0.0131692 -0.000465546 0)
(-0.0129698 -0.00050852 0)
(-0.0127531 -0.000551051 0)
(-0.0125192 -0.000593077 0)
(-0.0122685 -0.000634535 0)
(-0.012001 -0.000675361 0)
(-0.0117173 -0.000715488 0)
(-0.0114174 -0.000754849 0)
(-0.0111018 -0.000793371 0)
(-0.0107709 -0.000830978 0)
(-0.010425 -0.000867584 0)
(-0.0100645 -0.000903096 0)
(-0.00969 -0.000937406 0)
(-0.00930198 -0.000970387 0)
(-0.00890103 -0.00100189 0)
(-0.00848781 -0.00103172 0)
(-0.00806308 -0.00105967 0)
(-0.00762767 -0.00108545 0)
(-0.00718258 -0.00110872 0)
(-0.00672893 -0.00112907 0)
(-0.00626801 -0.00114598 0)
(-0.00580137 -0.00115885 0)
(-0.00533077 -0.00116694 0)
(-0.00485828 -0.00116942 0)
(-0.00438633 -0.0011653 0)
(-0.00391768 -0.00115347 0)
(-0.00345553 -0.0011327 0)
(-0.00300349 -0.0011017 0)
(-0.00256564 -0.00105909 0)
(-0.00214644 -0.00100356 0)
(-0.00175075 -0.000933924 0)
(-0.00138368 -0.000849306 0)
(-0.00105047 -0.000749384 0)
(-0.000756252 -0.000634745 0)
(-0.000505762 -0.000507416 0)
(-0.000302842 -0.000371628 0)
(-0.000149886 -0.000234795 0)
(-4.95243e-05 -0.000109011 0)
(-6.46898e-06 -1.49602e-05 0)
(-9.23759e-06 4.41155e-05 0)
(-6.42614e-05 0.000183934 0)
(-0.000187477 0.000355561 0)
(-0.00036904 0.000537614 0)
(-0.000604137 0.000716418 0)
(-0.000889406 0.000883535 0)
(-0.00122038 0.001034 0)
(-0.00159189 0.00116532 0)
(-0.00199856 0.00127678 0)
(-0.002435 0.00136878 0)
(-0.00289594 0.00144245 0)
(-0.00337642 0.00149935 0)
(-0.00387186 0.00154121 0)
(-0.00437811 0.00156986 0)
(-0.00489151 0.00158703 0)
(-0.00540882 0.00159437 0)
(-0.00592723 0.00159336 0)
(-0.00644432 0.00158529 0)
(-0.006958 0.00157127 0)
(-0.00746651 0.00155225 0)
(-0.00796833 0.001529 0)
(-0.00846215 0.00150216 0)
(-0.00894685 0.00147225 0)
(-0.00942145 0.00143968 0)
(-0.00988511 0.00140475 0)
(-0.010337 0.00136772 0)
(-0.0107766 0.00132879 0)
(-0.0112031 0.00128811 0)
(-0.011616 0.00124579 0)
(-0.0120148 0.00120193 0)
(-0.0123989 0.00115661 0)
(-0.0127679 0.0011099 0)
(-0.0131214 0.00106185 0)
(-0.0134588 0.00101251 0)
(-0.0137798 0.000961946 0)
(-0.0140841 0.000910191 0)
(-0.0143711 0.000857301 0)
(-0.0146406 0.000803323 0)
(-0.0148922 0.000748305 0)
(-0.0151257 0.000692298 0)
(-0.0153406 0.000635352 0)
(-0.0155367 0.000577519 0)
(-0.0157137 0.000518854 0)
(-0.0158714 0.000459413 0)
(-0.0160096 0.000399253 0)
(-0.0161279 0.00033843 0)
(-0.0162264 0.000277004 0)
(-0.0163046 0.000215034 0)
(-0.0163626 0.000152585 0)
(-0.0164001 8.97186e-05 0)
(-0.016417 2.65001e-05 0)
(-0.0164134 -3.70046e-05 0)
(-0.0163889 -0.000100728 0)
(-0.0163438 -0.0001646 0)
(-0.0162778 -0.00022855 0)
(-0.016191 -0.000292503 0)
(-0.0160835 -0.000356385 0)
(-0.0159553 -0.000420117 0)
(-0.0158063 -0.000483621 0)
(-0.0156369 -0.000546818 0)
(-0.015447 -0.000609624 0)
(-0.0152368 -0.000671955 0)
(-0.0150065 -0.000733726 0)
(-0.0147563 -0.000794851 0)
(-0.0144865 -0.00085524 0)
(-0.0141972 -0.000914804 0)
(-0.0138888 -0.000973449 0)
(-0.0135616 -0.00103108 0)
(-0.013216 -0.0010876 0)
(-0.0128523 -0.0011429 0)
(-0.012471 -0.00119687 0)
(-0.0120726 -0.00124938 0)
(-0.0116574 -0.0013003 0)
(-0.0112262 -0.00134946 0)
(-0.0107796 -0.00139669 0)
(-0.0103181 -0.00144175 0)
(-0.00984268 -0.00148437 0)
(-0.00935409 -0.00152425 0)
(-0.00885337 -0.00156096 0)
(-0.00834163 -0.00159402 0)
(-0.00782019 -0.00162284 0)
(-0.00729054 -0.00164669 0)
(-0.00675443 -0.00166472 0)
(-0.00621387 -0.00167592 0)
(-0.00567123 -0.0016791 0)
(-0.00512919 -0.0016729 0)
(-0.00459086 -0.00165583 0)
(-0.00405978 -0.00162621 0)
(-0.00353995 -0.00158229 0)
(-0.0030358 -0.00152228 0)
(-0.0025522 -0.00144446 0)
(-0.00209442 -0.00134732 0)
(-0.00166798 -0.00122979 0)
(-0.00127854 -0.00109154 0)
(-0.00093172 -0.000933383 0)
(-0.000632872 -0.000757873 0)
(-0.000386635 -0.000570057 0)
(-0.000196535 -0.000378414 0)
(-6.77118e-05 -0.000196157 0)
(-9.76321e-06 -4.46114e-05 0)
(-1.18913e-05 8.05816e-05 0)
(-7.97783e-05 0.000288352 0)
(-0.000228181 0.000523262 0)
(-0.000443119 0.000764498 0)
(-0.000717233 0.000998156 0)
(-0.0010459 0.00121531 0)
(-0.00142377 0.00141057 0)
(-0.001845 0.00158118 0)
(-0.0023037 0.0017263 0)
(-0.00279409 0.00184643 0)
(-0.00331058 0.00194296 0)
(-0.00384791 0.00201778 0)
(-0.00440122 0.00207307 0)
(-0.0049661 0.00211107 0)
(-0.00553861 0.002134 0)
(-0.00611527 0.00214395 0)
(-0.00669304 0.0021428 0)
(-0.0072693 0.00213222 0)
(-0.00784176 0.00211366 0)
(-0.00840848 0.00208836 0)
(-0.00896776 0.00205734 0)
(-0.00951817 0.00202145 0)
(-0.0100584 0.00198136 0)
(-0.0105875 0.00193762 0)
(-0.0111043 0.00189067 0)
(-0.0116081 0.00184084 0)
(-0.012098 0.00178841 0)
(-0.0125734 0.00173359 0)
(-0.0130336 0.00167653 0)
(-0.013478 0.00161738 0)
(-0.0139061 0.00155624 0)
(-0.0143172 0.00149321 0)
(-0.014711 0.00142838 0)
(-0.0150868 0.00136182 0)
(-0.0154443 0.00129359 0)
(-0.015783 0.00122378 0)
(-0.0161025 0.00115243 0)
(-0.0164024 0.00107963 0)
(-0.0166823 0.00100544 0)
(-0.0169419 0.000929927 0)
(-0.0171808 0.000853159 0)
(-0.0173987 0.000775209 0)
(-0.0175953 0.000696151 0)
(-0.0177703 0.00061606 0)
(-0.0179235 0.000535012 0)
(-0.0180547 0.000453086 0)
(-0.0181635 0.000370361 0)
(-0.0182499 0.000286918 0)
(-0.0183137 0.000202842 0)
(-0.0183546 0.000118219 0)
(-0.0183727 3.3136e-05 0)
(-0.0183677 -5.23182e-05 0)
(-0.0183397 -0.000138052 0)
(-0.0182885 -0.000223972 0)
(-0.0182142 -0.000309982 0)
(-0.0181167 -0.000395982 0)
(-0.0179961 -0.000481871 0)
(-0.0178525 -0.000567547 0)
(-0.0176858 -0.000652903 0)
(-0.0174963 -0.000737833 0)
(-0.017284 -0.000822226 0)
(-0.0170492 -0.00090597 0)
(-0.016792 -0.00098895 0)
(-0.0165127 -0.00107105 0)
(-0.0162115 -0.00115215 0)
(-0.0158887 -0.00123213 0)
(-0.0155447 -0.00131087 0)
(-0.0151797 -0.00138823 0)
(-0.0147943 -0.00146409 0)
(-0.0143889 -0.00153828 0)
(-0.0139639 -0.00161068 0)
(-0.0135198 -0.00168109 0)
(-0.0130572 -0.00174934 0)
(-0.0125768 -0.0018152 0)
(-0.0120793 -0.00187842 0)
(-0.0115654 -0.0019387 0)
(-0.011036 -0.00199567 0)
(-0.0104921 -0.00204889 0)
(-0.0099348 -0.00209782 0)
(-0.00936534 -0.00214182 0)
(-0.00878518 -0.00218008 0)
(-0.00819599 -0.00221166 0)
(-0.00759969 -0.00223543 0)
(-0.00699849 -0.00225007 0)
(-0.00639495 -0.00225404 0)
(-0.00579201 -0.0022456 0)
(-0.00519302 -0.00222281 0)
(-0.00460178 -0.00218357 0)
(-0.00402255 -0.00212564 0)
(-0.00346007 -0.0020468 0)
(-0.00291951 -0.00194491 0)
(-0.00240644 -0.00181813 0)
(-0.00192673 -0.00166517 0)
(-0.00148644 -0.00148562 0)
(-0.00109169 -0.00128043 0)
(-0.000748517 -0.00105244 0)
(-0.000462459 -0.00080717 0)
(-0.000238303 -0.00055361 0)
(-8.36517e-05 -0.000305312 0)
(-1.25222e-05 -8.31774e-05 0)
(-1.41173e-05 0.000124555 0)
(-9.3215e-05 0.000411802 0)
(-0.000264027 0.00071877 0)
(-0.000508963 0.00102578 0)
(-0.000818402 0.00131923 0)
(-0.00118644 0.00159016 0)
(-0.00160676 0.0018331 0)
(-0.00207284 0.00204528 0)
(-0.00257827 0.00222593 0)
(-0.00311686 0.00237571 0)
(-0.00368271 0.00249631 0)
(-0.00427031 0.00259 0)
(-0.00487457 0.00265941 0)
(-0.00549087 0.00270725 0)
(-0.00611508 0.00273622 0)
(-0.00674353 0.00274883 0)
(-0.00737301 0.00274741 0)
(-0.00800072 0.00273402 0)
(-0.00862425 0.00271045 0)
(-0.00924149 0.00267825 0)
(-0.00985062 0.00263869 0)
(-0.0104501 0.00259284 0)
(-0.0110385 0.00254157 0)
(-0.0116147 0.00248555 0)
(-0.0121776 0.00242537 0)
(-0.0127263 0.00236145 0)
(-0.0132599 0.00229414 0)
(-0.0137776 0.00222372 0)
(-0.0142788 0.00215041 0)
(-0.0147627 0.00207438 0)
(-0.0152287 0.0019958 0)
(-0.0156763 0.00191477 0)
(-0.0161048 0.00183142 0)
(-0.0165139 0.00174585 0)
(-0.0169028 0.00165814 0)
(-0.0172713 0.00156839 0)
(-0.0176188 0.0014767 0)
(-0.0179449 0.00138313 0)
(-0.0182492 0.0012878 0)
(-0.0185313 0.00119077 0)
(-0.0187909 0.00109215 0)
(-0.0190276 0.000992031 0)
(-0.019241 0.000890502 0)
(-0.0194309 0.000787661 0)
(-0.019597 0.000683608 0)
(-0.0197391 0.000578442 0)
(-0.0198569 0.000472267 0)
(-0.0199502 0.000365187 0)
(-0.0200188 0.000257312 0)
(-0.0200626 0.00014875 0)
(-0.0200815 3.96131e-05 0)
(-0.0200754 -6.99834e-05 0)
(-0.0200441 -0.000179923 0)
(-0.0199876 -0.000290084 0)
(-0.0199059 -0.000400344 0)
(-0.0197991 -0.000510577 0)
(-0.019667 -0.000620653 0)
(-0.0195099 -0.000730441 0)
(-0.0193278 -0.000839806 0)
(-0.0191208 -0.000948611 0)
(-0.0188891 -0.00105671 0)
(-0.0186329 -0.00116397 0)
(-0.0183523 -0.00127024 0)
(-0.0180477 -0.00137537 0)
(-0.0177193 -0.00147921 0)
(-0.0173675 -0.00158161 0)
(-0.0169926 -0.00168239 0)
(-0.016595 -0.0017814 0)
(-0.0161751 -0.00187846 0)
(-0.0157335 -0.00197339 0)
(-0.0152706 -0.00206598 0)
(-0.014787 -0.00215601 0)
(-0.0142834 -0.00224324 0)
(-0.0137604 -0.00232738 0)
(-0.0132189 -0.00240811 0)
(-0.0126596 -0.00248503 0)
(-0.0120835 -0.00255767 0)
(-0.0114918 -0.00262547 0)
(-0.0108855 -0.00268774 0)
(-0.0102661 -0.00274365 0)
(-0.00963512 -0.0027922 0)
(-0.00899437 -0.0028322 0)
(-0.00834592 -0.00286225 0)
(-0.00769213 -0.00288068 0)
(-0.00703572 -0.00288561 0)
(-0.00637981 -0.00287487 0)
(-0.00572793 -0.0028461 0)
(-0.00508409 -0.00279673 0)
(-0.00445276 -0.00272406 0)
(-0.0038389 -0.00262538 0)
(-0.00324792 -0.00249815 0)
(-0.00268567 -0.00234015 0)
(-0.00215833 -0.00214982 0)
(-0.00167237 -0.00192659 0)
(-0.00123442 -0.00167137 0)
(-0.000851236 -0.00138706 0)
(-0.000529316 -0.00107932 0)
(-0.000274707 -0.000757164 0)
(-9.72658e-05 -0.000433898 0)
(-1.47812e-05 -0.000129357 0)
(-1.59591e-05 0.000174929 0)
(-0.000104655 0.000551849 0)
(-0.00029502 0.000938909 0)
(-0.00056644 0.0013178 0)
(-0.000907346 0.00167562 0)
(-0.00131063 0.00200377 0)
(-0.00176901 0.00229699 0)
(-0.00227526 0.00255268 0)
(-0.00282244 0.00277033 0)
(-0.00340397 0.00295091 0)
(-0.00401364 0.00309646 0)
(-0.00464568 0.00320967 0)
(-0.00529483 0.00329365 0)
(-0.00595628 0.0033516 0)
(-0.00662575 0.00338668 0)
(-0.00729943 0.0034019 0)
(-0.00797398 0.00340001 0)
(-0.00864647 0.00338348 0)
(-0.00931436 0.00335444 0)
(-0.00997545 0.00331475 0)
(-0.0106278 0.00326596 0)
(-0.0112698 0.00320936 0)
(-0.0119 0.00314601 0)
(-0.012517 0.00307675 0)
(-0.0131198 0.00300227 0)
(-0.0137073 0.00292312 0)
(-0.0142787 0.00283973 0)
(-0.014833 0.00275246 0)
(-0.0153695 0.00266157 0)
(-0.0158875 0.00256731 0)
(-0.0163864 0.00246985 0)
(-0.0168654 0.00236936 0)
(-0.0173241 0.00226598 0)
(-0.0177617 0.00215984 0)
(-0.0181779 0.00205107 0)
(-0.0185721 0.00193977 0)
(-0.0189438 0.00182606 0)
(-0.0192925 0.00171006 0)
(-0.0196178 0.00159186 0)
(-0.0199193 0.00147159 0)
(-0.0201967 0.00134937 0)
(-0.0204494 0.00122529 0)
(-0.0206773 0.00109949 0)
(-0.02088 0.000972087 0)
(-0.0210572 0.000843195 0)
(-0.0212087 0.000712943 0)
(-0.0213341 0.00058146 0)
(-0.0214333 0.000448875 0)
(-0.0215061 0.000315322 0)
(-0.0215523 0.000180937 0)
(-0.0215719 4.58577e-05 0)
(-0.0215646 -8.97731e-05 0)
(-0.0215304 -0.000225811 0)
(-0.0214693 -0.000362106 0)
(-0.0213812 -0.000498507 0)
(-0.0212662 -0.000634858 0)
(-0.0211243 -0.000771 0)
(-0.0209555 -0.00090677 0)
(-0.02076 -0.001042 0)
(-0.0205379 -0.00117653 0)
(-0.0202893 -0.00131017 0)
(-0.0200145 -0.00144276 0)
(-0.0197138 -0.00157412 0)
(-0.0193873 -0.00170405 0)
(-0.0190354 -0.00183237 0)
(-0.0186584 -0.00195889 0)
(-0.0182568 -0.00208341 0)
(-0.0178309 -0.00220572 0)
(-0.0173812 -0.00232561 0)
(-0.0169082 -0.00244283 0)
(-0.0164126 -0.00255715 0)
(-0.0158949 -0.00266828 0)
(-0.0153557 -0.00277592 0)
(-0.014796 -0.00287972 0)
(-0.0142163 -0.00297925 0)
(-0.0136178 -0.00307404 0)
(-0.0130014 -0.00316351 0)
(-0.0123682 -0.00324695 0)
(-0.0117196 -0.00332352 0)
(-0.0110569 -0.00339222 0)
(-0.0103819 -0.00345182 0)
(-0.00969646 -0.00350089 0)
(-0.00900275 -0.00353771 0)
(-0.00830326 -0.0035603 0)
(-0.00760085 -0.0035664 0)
(-0.00689875 -0.00355343 0)
(-0.00620066 -0.00351858 0)
(-0.00551073 -0.00345879 0)
(-0.00483361 -0.00337089 0)
(-0.00417442 -0.00325169 0)
(-0.00353881 -0.00309818 0)
(-0.00293287 -0.00290775 0)
(-0.00236309 -0.00267848 0)
(-0.00183635 -0.00240954 0)
(-0.00135981 -0.00210162 0)
(-0.000940964 -0.00175749 0)
(-0.000587245 -0.0013826 0)
(-0.000305886 -0.000985644 0)
(-0.000108709 -0.000579272 0)
(-1.66071e-05 -0.000181922 0)
(-1.74686e-05 0.000230671 0)
(-0.000114295 0.00070618 0)
(-0.000321504 0.00118053 0)
(-0.000616017 0.00163689 0)
(-0.000984612 0.00206334 0)
(-0.00141912 0.00245191 0)
(-0.00191136 0.00279776 0)
(-0.00245339 0.00309872 0)
(-0.00303774 0.00335464 0)
(-0.00365744 0.00356692 0)
(-0.00430598 0.00373805 0)
(-0.00497736 0.00387122 0)
(-0.00566611 0.00397003 0)
(-0.00636728 0.00403819 0)
(-0.00707646 0.00407938 0)
(-0.00778973 0.00409706 0)
(-0.00850364 0.00409445 0)
(-0.00921517 0.00407441 0)
(-0.00992169 0.00403944 0)
(-0.0106209 0.00399172 0)
(-0.0113108 0.00393306 0)
(-0.0119897 0.00386499 0)
(-0.0126561 0.00378876 0)
(-0.0133085 0.00370538 0)
(-0.0139458 0.00361569 0)
(-0.014567 0.00352032 0)
(-0.015171 0.00341981 0)
(-0.015757 0.00331458 0)
(-0.0163242 0.00320497 0)
(-0.0168717 0.00309126 0)
(-0.017399 0.0029737 0)
(-0.0179052 0.00285246 0)
(-0.0183899 0.00272775 0)
(-0.0188523 0.0025997 0)
(-0.019292 0.00246848 0)
(-0.0197083 0.00233423 0)
(-0.0201009 0.00219708 0)
(-0.0204691 0.00205717 0)
(-0.0208126 0.00191465 0)
(-0.0211309 0.00176963 0)
(-0.0214236 0.00162228 0)
(-0.0216903 0.00147271 0)
(-0.0219306 0.00132109 0)
(-0.0221444 0.00116754 0)
(-0.0223311 0.00101223 0)
(-0.0224906 0.000855299 0)
(-0.0226226 0.000696903 0)
(-0.0227269 0.000537199 0)
(-0.0228033 0.000376349 0)
(-0.0228516 0.000214515 0)
(-0.0228717 5.18644e-05 0)
(-0.0228634 -0.000111433 0)
(-0.0228267 -0.000275201 0)
(-0.0227616 -0.000439263 0)
(-0.022668 -0.000603435 0)
(-0.0225459 -0.00076753 0)
(-0.0223954 -0.000931358 0)
(-0.0222166 -0.00109472 0)
(-0.0220095 -0.00125743 0)
(-0.0217743 -0.00141927 0)
(-0.0215112 -0.00158004 0)
(-0.0212204 -0.00173952 0)
(-0.0209022 -0.00189751 0)
(-0.0205568 -0.00205377 0)
(-0.0201845 -0.00220809 0)
(-0.0197858 -0.00236022 0)
(-0.0193611 -0.00250994 0)
(-0.0189107 -0.00265698 0)
(-0.0184352 -0.00280109 0)
(-0.0179352 -0.00294198 0)
(-0.0174112 -0.00307935 0)
(-0.0168639 -0.00321287 0)
(-0.0162941 -0.00334216 0)
(-0.0157024 -0.00346679 0)
(-0.0150898 -0.00358626 0)
(-0.0144572 -0.0037 0)
(-0.0138058 -0.00380729 0)
(-0.0131367 -0.00390731 0)
(-0.0124513 -0.00399905 0)
(-0.0117511 -0.00408132 0)
(-0.0110378 -0.00415266 0)
(-0.0103135 -0.00421138 0)
(-0.00958037 -0.00425547 0)
(-0.00884102 -0.00428261 0)
(-0.00809841 -0.00429015 0)
(-0.00735588 -0.00427509 0)
(-0.00661725 -0.00423416 0)
(-0.00588678 -0.00416382 0)
(-0.00516926 -0.0040604 0)
(-0.00447001 -0.0039202 0)
(-0.00379484 -0.00373972 0)
(-0.0031501 -0.00351588 0)
(-0.0025426 -0.00324633 0)
(-0.0019796 -0.00292986 0)
(-0.00146884 -0.0025668 0)
(-0.00101848 -0.00215957 0)
(-0.000636872 -0.00171317 0)
(-0.000332299 -0.00123572 0)
(-0.000118235 -0.000738948 0)
(-1.80724e-05 -0.000239782 0)
(-1.8687e-05 0.00029088 0)
(-0.000122357 0.000872656 0)
(-0.000343977 0.00144069 0)
(-0.00065847 0.00197962 0)
(-0.00105124 0.00247864 0)
(-0.00151322 0.00293057 0)
(-0.00203542 0.00333127 0)
(-0.0026092 0.00367908 0)
(-0.00322659 0.0039744 0)
(-0.00388021 0.00421916 0)
(-0.00456326 0.00441638 0)
(-0.0052695 0.00456981 0)
(-0.00599328 0.00468359 0)
(-0.00672952 0.00476197 0)
(-0.00747368 0.00480915 0)
(-0.00822175 0.00482909 0)
(-0.00897019 0.00482546 0)
(-0.00971591 0.00480153 0)
(-0.0104562 0.00476019 0)
(-0.0111887 0.00470391 0)
(-0.0119114 0.00463479 0)
(-0.0126224 0.0045546 0)
(-0.0133203 0.00446478 0)
(-0.0140035 0.00436652 0)
(-0.0146709 0.00426078 0)
(-0.0153213 0.00414832 0)
(-0.0159537 0.00402976 0)
(-0.0165672 0.00390562 0)
(-0.017161 0.00377628 0)
(-0.0177342 0.0036421 0)
(-0.018286 0.00350335 0)
(-0.0188159 0.00336026 0)
(-0.0193231 0.00321307 0)
(-0.019807 0.00306195 0)
(-0.0202671 0.00290709 0)
(-0.0207027 0.00274866 0)
(-0.0211133 0.00258683 0)
(-0.0214985 0.00242176 0)
(-0.0218577 0.00225362 0)
(-0.0221905 0.00208256 0)
(-0.0224965 0.00190876 0)
(-0.0227753 0.00173237 0)
(-0.0230265 0.00155358 0)
(-0.0232498 0.00137254 0)
(-0.0234449 0.00118944 0)
(-0.0236114 0.00100445 0)
(-0.0237491 0.000817758 0)
(-0.0238578 0.000629544 0)
(-0.0239374 0.000439997 0)
(-0.0239875 0.000249312 0)
(-0.0240081 5.76822e-05 0)
(-0.023999 -0.00013469 0)
(-0.0239602 -0.0003276 0)
(-0.0238917 -0.000520838 0)
(-0.0237933 -0.000714189 0)