/*--------------------------------*- C++ -*----------------------------------*\
| =========                 |                                                 |
| \\      /  F ield         | OpenFOAM: The Open Source CFD Toolbox           |
|  \\    /   O peration     | Version:  2512                                  |
|   \\  /    A nd           | Website:  www.openfoam.com                      |
|    \\/     M anipulation  |                                                 |
\*---------------------------------------------------------------------------*/
FoamFile
{
    version     2.0;
    format      ascii;
    arch        "LSB;label=32;scalar=64";
    class       volVectorField;
    location    "0.02";
    object      U;
}
// * * * * * * * * * * * * * * * * * * * * * * * * * * * * * * * * * * * * * //

dimensions      [0 1 -1 0 0 0 0];

internalField   nonuniform List<vector> 
10000
(
(-4.00127e-06 -1.31143e-05 0)
(1.1668e-05 -1.3886e-05 0)
(6.50818e-06 -1.18285e-06 0)
(-6.64395e-06 5.45325e-06 0)
(-3.85428e-05 1.03348e-05 0)
(-8.01101e-05 1.37335e-05 0)
(-0.000129245 1.60799e-05 0)
(-0.000183929 1.7683e-05 0)
(-0.000242452 1.87261e-05 0)
(-0.000303491 1.93345e-05 0)
(-0.000366053 1.9628e-05 0)
(-0.000429381 1.97207e-05 0)
(-0.000492931 1.96907e-05 0)
(-0.000556308 1.95667e-05 0)
(-0.00061922 1.93625e-05 0)
(-0.000681459 1.91022e-05 0)
(-0.000742873 1.88084e-05 0)
(-0.000803349 1.84909e-05 0)
(-0.000862797 1.81525e-05 0)
(-0.000921137 1.77947e-05 0)
(-0.000978302 1.74203e-05 0)
(-0.00103423 1.70297e-05 0)
(-0.00108888 1.66213e-05 0)
(-0.00114217 1.61968e-05 0)
(-0.00119407 1.57586e-05 0)
(-0.00124451 1.5306e-05 0)
(-0.00129346 1.48383e-05 0)
(-0.00134086 1.43553e-05 0)
(-0.00138666 1.38579e-05 0)
(-0.00143081 1.33475e-05 0)
(-0.00147327 1.28244e-05 0)
(-0.00151399 1.22869e-05 0)
(-0.00155292 1.17341e-05 0)
(-0.00159003 1.11677e-05 0)
(-0.00162527 1.059e-05 0)
(-0.00165861 1.00016e-05 0)
(-0.00169 9.40207e-06 0)
(-0.00171941 8.79108e-06 0)
(-0.00174681 8.16876e-06 0)
(-0.00177216 7.53623e-06 0)
(-0.00179543 6.89513e-06 0)
(-0.0018166 6.2463e-06 0)
(-0.00183564 5.58926e-06 0)
(-0.00185253 4.92352e-06 0)
(-0.00186724 4.24993e-06 0)
(-0.00187976 3.57036e-06 0)
(-0.00189005 2.88632e-06 0)
(-0.00189812 2.19825e-06 0)
(-0.00190395 1.50595e-06 0)
(-0.00190753 8.09644e-07 0)
(-0.00190884 1.10344e-07 0)
(-0.00190789 -5.90631e-07 0)
(-0.00190466 -1.29234e-06 0)
(-0.00189916 -1.99417e-06 0)
(-0.00189138 -2.69567e-06 0)
(-0.00188134 -3.39644e-06 0)
(-0.00186903 -4.09596e-06 0)
(-0.00185446 -4.79354e-06 0)
(-0.00183765 -5.48827e-06 0)
(-0.00181859 -6.17895e-06 0)
(-0.00179731 -6.86433e-06 0)
(-0.00177383 -7.54339e-06 0)
(-0.00174817 -8.2152e-06 0)
(-0.00172035 -8.87911e-06 0)
(-0.0016904 -9.53444e-06 0)
(-0.00165834 -1.01801e-05 0)
(-0.00162422 -1.0815e-05 0)
(-0.00158806 -1.1438e-05 0)
(-0.00154992 -1.20483e-05 0)
(-0.00150981 -1.26454e-05 0)
(-0.0014678 -1.32288e-05 0)
(-0.00142392 -1.37984e-05 0)
(-0.00137823 -1.43536e-05 0)
(-0.00133076 -1.48939e-05 0)
(-0.00128158 -1.54187e-05 0)
(-0.00123073 -1.59273e-05 0)
(-0.00117827 -1.64196e-05 0)
(-0.00112425 -1.68953e-05 0)
(-0.00106873 -1.73542e-05 0)
(-0.00101178 -1.7796e-05 0)
(-0.000953449 -1.82199e-05 0)
(-0.00089381 -1.86248e-05 0)
(-0.000832939 -1.90081e-05 0)
(-0.000770921 -1.93661e-05 0)
(-0.000707861 -1.96924e-05 0)
(-0.000643891 -1.99772e-05 0)
(-0.000579187 -2.02053e-05 0)
(-0.000513984 -2.03539e-05 0)
(-0.000448604 -2.03906e-05 0)
(-0.000383488 -2.02702e-05 0)
(-0.000319235 -1.99299e-05 0)
(-0.000256648 -1.92865e-05 0)
(-0.000196784 -1.82333e-05 0)
(-0.000141001 -1.6639e-05 0)
(-9.09971e-05 -1.43515e-05 0)
(-4.88065e-05 -1.12169e-05 0)
(-1.6715e-05 -7.14034e-06 0)
(3.06736e-06 -2.23072e-06 0)
(9.47808e-06 2.7495e-06 0)
(4.67967e-06 4.67676e-06 0)
(-8.36469e-06 -7.051e-06 0)
(-1.63647e-05 -8.63149e-06 0)
(-4.31984e-05 2.27084e-05 0)
(-0.000101127 4.86387e-05 0)
(-0.000188107 7.05541e-05 0)
(-0.000298494 8.77405e-05 0)
(-0.000427769 0.000100643 0)
(-0.000571462 0.000109979 0)
(-0.000725683 0.000116435 0)
(-0.000887189 0.000120596 0)
(-0.00105338 0.000122998 0)
(-0.00122224 0.000124097 0)
(-0.00139224 0.000124255 0)
(-0.00156222 0.000123725 0)
(-0.00173132 0.000122688 0)
(-0.00189889 0.000121276 0)
(-0.00206446 0.000119586 0)
(-0.00222766 0.000117681 0)
(-0.00238822 0.000115606 0)
(-0.00254587 0.000113387 0)
(-0.00270042 0.000111038 0)
(-0.00285167 0.000108568 0)
(-0.00299947 0.000105984 0)
(-0.00314366 0.000103292 0)
(-0.00328406 0.000100498 0)
(-0.00342054 9.76032e-05 0)
(-0.00355295 9.46077e-05 0)
(-0.00368116 9.15131e-05 0)
(-0.00380503 8.83234e-05 0)
(-0.00392441 8.50421e-05 0)
(-0.00403919 8.16703e-05 0)
(-0.00414924 7.82081e-05 0)
(-0.00425444 7.46579e-05 0)
(-0.00435467 7.10249e-05 0)
(-0.00444982 6.73143e-05 0)
(-0.00453979 6.35293e-05 0)
(-0.00462447 5.96724e-05 0)
(-0.00470376 5.57468e-05 0)
(-0.00477759 5.17565e-05 0)
(-0.00484586 4.7706e-05 0)
(-0.0049085 4.35991e-05 0)
(-0.00496542 3.94393e-05 0)
(-0.00501656 3.52297e-05 0)
(-0.00506186 3.09738e-05 0)
(-0.00510127 2.66766e-05 0)
(-0.00513472 2.23433e-05 0)
(-0.00516217 1.79789e-05 0)
(-0.00518359 1.35872e-05 0)
(-0.00519893 9.17186e-06 0)
(-0.00520818 4.7369e-06 0)
(-0.00521131 2.87092e-07 0)
(-0.0052083 -4.17255e-06 0)
(-0.00519915 -8.63752e-06 0)
(-0.00518384 -1.31036e-05 0)
(-0.00516239 -1.75666e-05 0)
(-0.0051348 -2.20223e-05 0)
(-0.00510108 -2.64665e-05 0)
(-0.00506127 -3.08945e-05 0)
(-0.00501538 -3.53012e-05 0)
(-0.00496345 -3.96806e-05 0)
(-0.00490552 -4.40267e-05 0)
(-0.00484165 -4.83336e-05 0)
(-0.0047719 -5.25956e-05 0)
(-0.00469632 -5.6807e-05 0)
(-0.004615 -6.09623e-05 0)
(-0.00452801 -6.50559e-05 0)
(-0.00443544 -6.9082e-05 0)
(-0.00433739 -7.3035e-05 0)
(-0.00423396 -7.69102e-05 0)
(-0.00412525 -8.07029e-05 0)
(-0.0040114 -8.44089e-05 0)
(-0.00389251 -8.80244e-05 0)
(-0.00376872 -9.15454e-05 0)
(-0.00364015 -9.49679e-05 0)
(-0.00350696 -9.82883e-05 0)
(-0.00336928 -0.000101503 0)
(-0.00322726 -0.000104609 0)
(-0.00308107 -0.000107603 0)
(-0.00293086 -0.000110479 0)
(-0.00277681 -0.000113233 0)
(-0.0026191 -0.000115856 0)
(-0.00245794 -0.000118336 0)
(-0.00229354 -0.000120653 0)
(-0.00212618 -0.000122774 0)
(-0.00195618 -0.000124655 0)
(-0.00178393 -0.000126224 0)
(-0.00160997 -0.000127379 0)
(-0.00143498 -0.000127974 0)
(-0.0012599 -0.000127809 0)
(-0.00108594 -0.000126616 0)
(-0.000914723 -0.000124048 0)
(-0.000748345 -0.000119672 0)
(-0.000589462 -0.000112973 0)
(-0.000441345 -0.000103371 0)
(-0.00030788 -9.02835e-05 0)
(-0.000193438 -7.32557e-05 0)
(-0.000102488 -5.22543e-05 0)
(-3.88049e-05 -2.82148e-05 0)
(-4.34259e-06 -4.36502e-06 0)
(2.75687e-06 9.48188e-06 0)
(-5.29605e-06 -2.79922e-07 0)
(-3.11558e-05 3.06606e-05 0)
(-9.79153e-05 8.8182e-05 0)
(-0.000202352 0.000146865 0)
(-0.000343278 0.000198851 0)
(-0.00051597 0.000241612 0)
(-0.000714815 0.000275019 0)
(-0.000934194 0.000299961 0)
(-0.00116895 0.000317702 0)
(-0.0014146 0.000329583 0)
(-0.00166749 0.000336827 0)
(-0.00192467 0.000340508 0)
(-0.00218384 0.000341514 0)
(-0.00244325 0.000340524 0)
(-0.00270156 0.000338051 0)
(-0.00295773 0.000334472 0)
(-0.003211 0.000330054 0)
(-0.00346077 0.000324984 0)
(-0.00370657 0.000319387 0)
(-0.00394799 0.000313349 0)
(-0.0041847 0.000306925 0)
(-0.0044164 0.000300145 0)
(-0.00464282 0.000293031 0)
(-0.0048637 0.000285606 0)
(-0.00507879 0.000277882 0)
(-0.00528787 0.000269866 0)
(-0.0054907 0.000261565 0)
(-0.00568707 0.000252985 0)
(-0.00587675 0.000244136 0)
(-0.00605956 0.000235026 0)
(-0.00623527 0.000225661 0)
(-0.00640372 0.000216047 0)
(-0.0065647 0.000206193 0)
(-0.00671804 0.000196111 0)
(-0.00686357 0.000185813 0)
(-0.00700113 0.000175307 0)
(-0.00713057 0.000164604 0)
(-0.00725174 0.000153715 0)
(-0.0073645 0.000142649 0)
(-0.00746873 0.000131419 0)
(-0.00756431 0.000120035 0)
(-0.00765112 0.000108508 0)
(-0.00772907 9.68467e-05 0)
(-0.00779805 8.50634e-05 0)
(-0.007858 7.31698e-05 0)
(-0.00790882 6.11788e-05 0)
(-0.00795045 4.91026e-05 0)
(-0.00798282 3.69529e-05 0)
(-0.0080059 2.4741e-05 0)
(-0.00801965 1.24784e-05 0)
(-0.00802402 1.77648e-07 0)
(-0.008019 -1.21487e-05 0)
(-0.00800457 -2.44879e-05 0)
(-0.00798073 -3.68275e-05 0)
(-0.00794749 -4.91554e-05 0)
(-0.00790486 -6.14592e-05 0)
(-0.00785287 -7.37266e-05 0)
(-0.00779156 -8.59447e-05 0)
(-0.00772096 -9.8099e-05 0)
(-0.00764115 -0.000110175 0)
(-0.00755217 -0.000122156 0)
(-0.00745413 -0.000134028 0)
(-0.00734709 -0.000145776 0)
(-0.00723118 -0.000157384 0)
(-0.00710649 -0.000168837 0)
(-0.00697315 -0.000180121 0)
(-0.0068313 -0.000191221 0)
(-0.00668107 -0.000202122 0)
(-0.00652263 -0.000212811 0)
(-0.00635614 -0.000223275 0)
(-0.00618178 -0.0002335 0)
(-0.00599973 -0.000243475 0)
(-0.00581019 -0.000253189 0)
(-0.00561337 -0.000262628 0)
(-0.00540947 -0.000271783 0)
(-0.00519873 -0.00028064 0)
(-0.00498138 -0.000289189 0)
(-0.00475766 -0.000297418 0)
(-0.00452784 -0.000305309 0)
(-0.00429218 -0.000312844 0)
(-0.004051 -0.000319994 0)
(-0.0038046 -0.000326718 0)
(-0.00355336 -0.000332953 0)
(-0.00329772 -0.000338605 0)
(-0.00303819 -0.000343535 0)
(-0.00277544 -0.000347542 0)
(-0.0025103 -0.000350339 0)
(-0.00224386 -0.000351529 0)
(-0.00197755 -0.000350577 0)
(-0.00171323 -0.000346788 0)
(-0.0014533 -0.000339285 0)
(-0.00120079 -0.000327014 0)
(-0.000959478 -0.000308771 0)
(-0.000733881 -0.000283286 0)
(-0.000529223 -0.000249404 0)
(-0.000351204 -0.000206417 0)
(-0.000205441 -0.000154693 0)
(-9.65609e-05 -9.66719e-05 0)
(-2.81296e-05 -3.8806e-05 0)
(-2.20674e-06 3.09843e-06 0)
(-8.22491e-06 2.44874e-05 0)
(-5.20513e-05 9.57629e-05 0)
(-0.000152402 0.000194889 0)
(-0.000299933 0.000294915 0)
(-0.000490275 0.000384381 0)
(-0.000718056 0.000459257 0)
(-0.000976936 0.000518763 0)
(-0.00126046 0.000563922 0)
(-0.00156269 0.000596599 0)
(-0.00187841 0.000618894 0)
(-0.00220324 0.000632834 0)
(-0.0025336 0.000640233 0)
(-0.00286664 0.000642614 0)
(-0.00320015 0.000641196 0)
(-0.0035324 0.000636923 0)
(-0.00386208 0.000630495 0)
(-0.00418817 0.000622414 0)
(-0.00450986 0.000613039 0)
(-0.0048265 0.00060262 0)
(-0.00513756 0.000591325 0)
(-0.0054426 0.000579262 0)
(-0.0057412 0.000566504 0)
(-0.006033 0.000553101 0)
(-0.00631766 0.000539091 0)
(-0.00659485 0.0005245 0)
(-0.00686427 0.000509346 0)
(-0.00712562 0.000493645 0)
(-0.00737861 0.000477413 0)
(-0.00762297 0.000460669 0)
(-0.00785843 0.000443425 0)
(-0.00808473 0.000425696 0)
(-0.00830163 0.000407499 0)
(-0.00850888 0.000388853 0)
(-0.00870626 0.000369777 0)
(-0.00889354 0.000350292 0)
(-0.00907053 0.000330418 0)
(-0.00923703 0.000310173 0)
(-0.00939285 0.000289578 0)
(-0.00953781 0.000268655 0)
(-0.00967176 0.000247425 0)
(-0.00979454 0.000225908 0)
(-0.00990602 0.000204124 0)
(-0.0100061 0.000182093 0)
(-0.0100945 0.000159837 0)
(-0.0101713 0.000137378 0)
(-0.0102364 0.000114739 0)
(-0.0102896 9.19419e-05 0)
(-0.0103309 6.90086e-05 0)
(-0.0103602 4.59611e-05 0)
(-0.0103775 2.28222e-05 0)
(-0.0103827 -3.85139e-07 0)
(-0.0103758 -2.36374e-05 0)
(-0.0103568 -4.6911e-05 0)
(-0.0103257 -7.01824e-05 0)
(-0.0102825 -9.34281e-05 0)
(-0.0102272 -0.000116624 0)
(-0.0101599 -0.000139747 0)
(-0.0100806 -0.00016277 0)
(-0.00998931 -0.000185668 0)
(-0.0098862 -0.000208414 0)
(-0.00977132 -0.00023098 0)
(-0.00964478 -0.000253338 0)
(-0.0095067 -0.00027546 0)
(-0.0093572 -0.000297319 0)
(-0.00919643 -0.000318887 0)
(-0.00902455 -0.000340137 0)
(-0.00884172 -0.000361041 0)
(-0.00864814 -0.000381572 0)
(-0.00844399 -0.000401706 0)
(-0.00822951 -0.000421416 0)
(-0.0080049 -0.000440678 0)
(-0.00777041 -0.000459468 0)
(-0.0075263 -0.000477762 0)
(-0.00727282 -0.000495537 0)
(-0.00701027 -0.00051277 0)
(-0.00673892 -0.000529438 0)
(-0.00645908 -0.000545515 0)
(-0.00617108 -0.000560976 0)
(-0.00587527 -0.000575785 0)
(-0.00557199 -0.000589901 0)
(-0.00526165 -0.000603264 0)
(-0.00494469 -0.000615787 0)
(-0.0046216 -0.000627345 0)
(-0.00429296 -0.000637751 0)
(-0.00395948 -0.000646737 0)
(-0.00362202 -0.000653919 0)
(-0.00328168 -0.000658761 0)
(-0.00293988 -0.000660531 0)
(-0.00259844 -0.000658263 0)
(-0.00225968 -0.000650719 0)
(-0.00192656 -0.000636369 0)
(-0.00160277 -0.000613414 0)
(-0.0012928 -0.000579853 0)
(-0.00100195 -0.000533657 0)
(-0.000736283 -0.000473075 0)
(-0.000502326 -0.000397179 0)
(-0.000306529 -0.000306742 0)
(-0.000154443 -0.000205525 0)
(-5.20596e-05 -0.000102401 0)
(-7.0767e-06 -1.65926e-05 0)
(-1.1244e-05 5.44875e-05 0)
(-7.12295e-05 0.000185122 0)
(-0.000201863 0.000337423 0)
(-0.000388089 0.000485987 0)
(-0.000622158 0.000618329 0)
(-0.00089778 0.000729558 0)
(-0.00120789 0.000818686 0)
(-0.00154539 0.000886999 0)
(-0.00190379 0.000936952 0)
(-0.00227741 0.000971435 0)
(-0.00266142 0.00099333 0)
(-0.00305181 0.00100524 0)
(-0.00344537 0.0010094 0)
(-0.00383955 0.00100761 0)
(-0.00423235 0.00100129 0)
(-0.00462223 0.000991523 0)
(-0.00500797 0.000979089 0)
(-0.00538859 0.000964555 0)
(-0.0057633 0.000948318 0)
(-0.00613147 0.00093065 0)
(-0.00649253 0.000911732 0)
(-0.006846 0.000891689 0)
(-0.00719142 0.000870609 0)
(-0.00752837 0.000848552 0)
(-0.00785648 0.000825561 0)
(-0.00817537 0.00080167 0)
(-0.00848468 0.000776911 0)
(-0.00878408 0.00075131 0)
(-0.00907322 0.000724896 0)
(-0.0093518 0.000697692 0)
(-0.00961952 0.000669724 0)
(-0.00987607 0.00064102 0)
(-0.0101212 0.000611612 0)
(-0.0103546 0.00058153 0)
(-0.010576 0.000550805 0)
(-0.0107852 0.000519468 0)
(-0.010982 0.000487551 0)
(-0.0111661 0.000455088 0)
(-0.0113373 0.000422113 0)
(-0.0114955 0.000388657 0)
(-0.0116404 0.000354754 0)
(-0.011772 0.000320435 0)
(-0.01189 0.000285734 0)
(-0.0119943 0.000250685 0)
(-0.0120848 0.000215323 0)
(-0.0121614 0.000179681 0)
(-0.0122239 0.000143795 0)
(-0.0122724 0.0001077 0)
(-0.0123066 7.1429e-05 0)
(-0.0123267 3.50189e-05 0)
(-0.0123324 -1.49417e-06 0)
(-0.0123239 -3.80733e-05 0)
(-0.012301 -7.46816e-05 0)
(-0.0122638 -0.000111282 0)
(-0.0122123 -0.000147837 0)
(-0.0121465 -0.00018431 0)
(-0.0120665 -0.00022066 0)
(-0.0119723 -0.000256849 0)
(-0.011864 -0.000292835 0)
(-0.0117418 -0.000328577 0)
(-0.0116056 -0.000364032 0)
(-0.0114556 -0.00039916 0)
(-0.011292 -0.000433915 0)
(-0.011115 -0.000468256 0)
(-0.0109246 -0.00050214 0)
(-0.0107211 -0.000535524 0)
(-0.0105046 -0.000568365 0)
(-0.0102755 -0.000600623 0)
(-0.0100339 -0.000632257 0)
(-0.00978007 -0.000663226 0)
(-0.00951429 -0.00069349 0)
(-0.00923685 -0.000723012 0)
(-0.00894804 -0.000751752 0)
(-0.00864818 -0.000779672 0)
(-0.00833759 -0.000806735 0)
(-0.00801662 -0.000832902 0)
(-0.00768565 -0.00085813 0)
(-0.00734506 -0.000882373 0)
(-0.00699525 -0.000905574 0)
(-0.00663668 -0.000927658 0)
(-0.00626981 -0.000948525 0)
(-0.00589517 -0.000968031 0)
(-0.00551339 -0.000985967 0)
(-0.00512515 -0.00100204 0)
(-0.00473131 -0.00101581 0)
(-0.0043329 -0.00102669 0)
(-0.00393125 -0.00103384 0)
(-0.00352799 -0.00103616 0)
(-0.00312523 -0.00103218 0)
(-0.00272564 -0.00102007 0)
(-0.00233253 -0.000997593 0)
(-0.00195002 -0.000962144 0)
(-0.00158308 -0.000910892 0)
(-0.00123749 -0.000841017 0)
(-0.000919861 -0.00075014 0)
(-0.000637372 -0.000637022 0)
(-0.000397264 -0.000502587 0)
(-0.000206211 -0.000351308 0)
(-7.29899e-05 -0.000193226 0)
(-1.11097e-05 -4.85226e-05 0)
(-1.3899e-05 9.45375e-05 0)
(-8.7508e-05 0.000297256 0)
(-0.000244009 0.000511787 0)
(-0.000463515 0.000715061 0)
(-0.000735258 0.000894582 0)
(-0.00105171 0.00104535 0)
(-0.00140503 0.00116656 0)
(-0.00178758 0.00125998 0)
(-0.00219245 0.00132875 0)
(-0.00261362 0.00137661 0)
(-0.00304596 0.00140728 0)
(-0.0034852 0.00142422 0)
(-0.00392789 0.00143039 0)
(-0.00437125 0.00142822 0)
(-0.00481312 0.00141965 0)
(-0.00525175 0.00140614 0)
(-0.00568578 0.00138879 0)
(-0.00611412 0.0013684 0)
(-0.00653588 0.00134553 0)
(-0.0069503 0.00132058 0)
(-0.00735674 0.0012938 0)
(-0.00775465 0.0012654 0)
(-0.00814349 0.00123549 0)
(-0.00852281 0.00120418 0)
(-0.00889215 0.00117152 0)
(-0.00925109 0.00113756 0)
(-0.00959923 0.00110237 0)
(-0.00993618 0.00106597 0)
(-0.0102616 0.00102842 0)
(-0.010575 0.000989739 0)
(-0.0108762 0.000949975 0)
(-0.0111648 0.00090917 0)
(-0.0114405 0.000867368 0)
(-0.011703 0.000824611 0)
(-0.011952 0.000780944 0)
(-0.0121872 0.000736412 0)
(-0.0124084 0.000691062 0)
(-0.0126154 0.000644941 0)
(-0.0128078 0.000598097 0)
(-0.0129855 0.000550577 0)
(-0.0131483 0.000502426 0)
(-0.013296 0.000453692 0)
(-0.0134284 0.000404422 0)
(-0.0135455 0.000354665 0)
(-0.0136469 0.000304469 0)
(-0.0137327 0.000253884 0)
(-0.0138027 0.000202957 0)
(-0.0138569 0.000151738 0)
(-0.013895 0.000100276 0)
(-0.0139172 4.86231e-05 0)
(-0.0139233 -3.17004e-06 0)
(-0.0139133 -5.50513e-05 0)
(-0.0138872 -0.000106969 0)
(-0.013845 -0.000158869 0)
(-0.0137867 -0.000210701 0)
(-0.0137123 -0.000262408 0)
(-0.013622 -0.000313936 0)
(-0.0135157 -0.000365229 0)
(-0.0133936 -0.000416228 0)
(-0.0132557 -0.000466877 0)
(-0.0131022 -0.000517117 0)
(-0.0129333 -0.000566888 0)
(-0.012749 -0.000616132 0)
(-0.0125496 -0.000664787 0)
(-0.0123352 -0.000712794 0)
(-0.012106 -0.000760093 0)
(-0.0118624 -0.000806625 0)
(-0.0116045 -0.00085233 0)
(-0.0113325 -0.000897151 0)
(-0.0110469 -0.000941031 0)
(-0.0107478 -0.000983912 0)
(-0.0104356 -0.00102574 0)
(-0.0101106 -0.00106645 0)
(-0.0097732 -0.00110601 0)
(-0.00942376 -0.00114434 0)
(-0.00906267 -0.00118139 0)
(-0.00869034 -0.00121709 0)
(-0.00830722 -0.00125139 0)
(-0.00791377 -0.00128418 0)
(-0.00751049 -0.00131536 0)
(-0.00709794 -0.00134478 0)
(-0.00667672 -0.00137223 0)
(-0.00624752 -0.0013974 0)
(-0.00581116 -0.00141986 0)
(-0.00536858 -0.00143901 0)
(-0.00492098 -0.00145402 0)
(-0.00446979 -0.00146372 0)
(-0.00401685 -0.0014666 0)
(-0.00356445 -0.00146069 0)
(-0.00311547 -0.0014435 0)
(-0.00267349 -0.00141207 0)
(-0.00224289 -0.00136296 0)
(-0.00182891 -0.00129248 0)
(-0.00143771 -0.00119696 0)
(-0.00107631 -0.00107332 0)
(-0.000752475 -0.000919788 0)
(-0.000474282 -0.000737073 0)
(-0.000249648 -0.000529665 0)
(-9.00788e-05 -0.000307653 0)
(-1.42159e-05 -9.05214e-05 0)
(-1.60513e-05 0.000142471 0)
(-0.000100618 0.000428332 0)
(-0.000278351 0.000713137 0)
(-0.000525574 0.000976454 0)
(-0.000828943 0.00120676 0)
(-0.00117962 0.00139957 0)
(-0.00156896 0.00155464 0)
(-0.0019888 0.00167446 0)
(-0.00243186 0.00176302 0)
(-0.00289185 0.00182494 0)
(-0.00336344 0.00186488 0)
(-0.00384219 0.00188712 0)
(-0.0043245 0.0018954 0)
(-0.00480744 0.00189278 0)
(-0.00528872 0.00188172 0)
(-0.00576649 0.00186412 0)
(-0.00623928 0.00184139 0)
(-0.0067059 0.00181458 0)
(-0.00716538 0.00178442 0)
(-0.0076169 0.00175144 0)
(-0.00805974 0.001716 0)
(-0.00849328 0.00167837 0)
(-0.00891695 0.0016387 0)
(-0.00933023 0.00159714 0)
(-0.00973262 0.00155378 0)
(-0.0101237 0.00150869 0)
(-0.0105029 0.00146194 0)
(-0.01087 0.00141359 0)
(-0.0112244 0.00136369 0)
(-0.0115658 0.00131231 0)
(-0.0118938 0.00125948 0)
(-0.0122081 0.00120528 0)
(-0.0125082 0.00114976 0)
(-0.012794 0.00109297 0)
(-0.013065 0.00103498 0)
(-0.013321 0.000975846 0)
(-0.0135617 0.000915633 0)
(-0.0137869 0.000854404 0)
(-0.0139962 0.00079222 0)
(-0.0141895 0.000729144 0)
(-0.0143665 0.000665239 0)
(-0.0145271 0.000600566 0)
(-0.0146711 0.00053519 0)
(-0.0147982 0.000469175 0)
(-0.0149084 0.000402585 0)
(-0.0150015 0.000335486 0)
(-0.0150774 0.00026794 0)
(-0.015136 0.000200013 0)
(-0.0151773 0.000131772 0)
(-0.0152011 6.32842e-05 0)
(-0.0152074 -5.38244e-06 0)
(-0.0151962 -7.41595e-05 0)
(-0.0151674 -0.000142978 0)
(-0.0151211 -0.000211769 0)
(-0.0150573 -0.000280461 0)
(-0.0149761 -0.000348982 0)
(-0.0148774 -0.000417259 0)
(-0.0147614 -0.000485218 0)
(-0.0146281 -0.000552783 0)
(-0.0144778 -0.000619879 0)
(-0.0143104 -0.00068643 0)
(-0.0141262 -0.000752357 0)
(-0.0139253 -0.000817584 0)
(-0.013708 -0.00088203 0)
(-0.0134744 -0.000945618 0)
(-0.0132247 -0.00100827 0)
(-0.0129592 -0.0010699 0)
(-0.0126782 -0.00113044 0)
(-0.012382 -0.00118981 0)
(-0.0120708 -0.00124793 0)
(-0.011745 -0.00130473 0)
(-0.011405 -0.00136014 0)
(-0.011051 -0.00141406 0)
(-0.0106836 -0.00146644 0)
(-0.010303 -0.0015172 0)
(-0.00990977 -0.00156624 0)
(-0.00950432 -0.0016135 0)
(-0.00908714 -0.00165887 0)
(-0.00865874 -0.00170222 0)
(-0.00821968 -0.00174341 0)
(-0.00777055 -0.00178222 0)
(-0.00731203 -0.00181837 0)
(-0.00684489 -0.00185145 0)
(-0.00636999 -0.0018809 0)
(-0.00588839 -0.00190592 0)
(-0.00540135 -0.00192542 0)
(-0.00491044 -0.00193791 0)
(-0.0044176 -0.00194145 0)
(-0.00392524 -0.00193352 0)
(-0.00343639 -0.001911 0)
(-0.00295477 -0.00187015 0)
(-0.00248494 -0.0018067 0)
(-0.00203237 -0.00171604 0)
(-0.00160346 -0.00159359 0)
(-0.00120563 -0.00143539 0)
(-0.000847225 -0.00123895 0)
(-0.000537156 -0.00100432 0)
(-0.000284586 -0.000735397 0)
(-0.00010344 -0.00044147 0)
(-1.65055e-05 -0.00014039 0)
(-1.77027e-05 0.000196474 0)
(-0.000110809 0.000574619 0)
(-0.000305498 0.000936513 0)
(-0.000575227 0.00126453 0)
(-0.000904561 0.00154873 0)
(-0.00128348 0.00178561 0)
(-0.00170253 0.00197588 0)
(-0.002153 0.00212298 0)
(-0.00262728 0.0022319 0)
(-0.00311885 0.00230826 0)
(-0.00362221 0.00235768 0)
(-0.00413281 0.00238532 0)
(-0.00464694 0.00239568 0)
(-0.00516161 0.00239248 0)
(-0.00567442 0.00237872 0)
(-0.00618345 0.00235672 0)
(-0.00668717 0.00232822 0)
(-0.00718432 0.00229452 0)
(-0.00767388 0.00225654 0)
(-0.00815496 0.00221494 0)
(-0.0086268 0.00217019 0)
(-0.00908873 0.00212262 0)
(-0.00954014 0.00207245 0)
(-0.00998047 0.00201986 0)
(-0.0104092 0.00196496 0)
(-0.0108258 0.00190787 0)
(-0.0112298 0.00184867 0)
(-0.0116208 0.00178744 0)
(-0.0119983 0.00172424 0)
(-0.0123619 0.00165916 0)
(-0.0127113 0.00159226 0)
(-0.0130459 0.00152362 0)
(-0.0133656 0.00145332 0)
(-0.0136698 0.00138142 0)
(-0.0139584 0.001308 0)
(-0.0142309 0.00123314 0)
(-0.0144871 0.00115692 0)
(-0.0147267 0.00107943 0)
(-0.0149494 0.00100073 0)
(-0.0151551 0.000920911 0)
(-0.0153434 0.000840048 0)
(-0.0155142 0.000758223 0)
(-0.0156672 0.000675517 0)
(-0.0158024 0.00059201 0)
(-0.0159195 0.000507785 0)
(-0.0160184 0.000422921 0)
(-0.0160989 0.000337501 0)
(-0.0161611 0.000251607 0)
(-0.0162047 0.000165324 0)
(-0.0162298 7.87369e-05 0)
(-0.0162362 -8.06923e-06 0)
(-0.016224 -9.50079e-05 0)
(-0.0161931 -0.000181992 0)
(-0.0161436 -0.000268935 0)
(-0.0160754 -0.000355745 0)
(-0.0159886 -0.000442333 0)
(-0.0158833 -0.000528606 0)
(-0.0157596 -0.000614471 0)
(-0.0156175 -0.000699835 0)
(-0.0154571 -0.000784601 0)
(-0.0152787 -0.000868676 0)
(-0.0150824 -0.00095196 0)
(-0.0148683 -0.00103436 0)
(-0.0146367 -0.00111577 0)
(-0.0143878 -0.00119609 0)
(-0.0141218 -0.00127524 0)
(-0.0138389 -0.0013531 0)
(-0.0135396 -0.00142958 0)
(-0.013224 -0.00150458 0)
(-0.0128925 -0.001578 0)
(-0.0125455 -0.00164976 0)
(-0.0121833 -0.00171975 0)
(-0.0118063 -0.00178787 0)
(-0.0114149 -0.00185403 0)
(-0.0110096 -0.00191813 0)
(-0.0105908 -0.00198006 0)
(-0.010159 -0.00203972 0)
(-0.00971469 -0.00209697 0)
(-0.00925847 -0.00215165 0)
(-0.00879091 -0.00220356 0)
(-0.00831267 -0.00225244 0)
(-0.00782445 -0.00229791 0)
(-0.00732706 -0.00233946 0)
(-0.00682146 -0.00237638 0)
(-0.00630873 -0.00240767 0)
(-0.00579022 -0.00243199 0)
(-0.00526756 -0.00244751 0)
(-0.00474275 -0.00245185 0)
(-0.0042183 -0.00244194 0)
(-0.00369731 -0.00241402 0)
(-0.00318362 -0.00236356 0)
(-0.00268191 -0.00228541 0)
(-0.0021978 -0.00217398 0)
(-0.00173796 -0.00202371 0)
(-0.00131014 -0.00182961 0)
(-0.000923281 -0.0015882 0)
(-0.000587095 -0.00129851 0)
(-0.000311891 -0.000963342 0)
(-0.000113594 -0.000590653 0)
(-1.81452e-05 -0.000196219 0)
(-1.88951e-05 0.00025506 0)
(-0.000118529 0.000732759 0)
(-0.000326519 0.00117744 0)
(-0.000614195 0.00157423 0)
(-0.000964523 0.00191501 0)
(-0.00136648 0.00219771 0)
(-0.00180983 0.00242426 0)
(-0.00228535 0.00259929 0)
(-0.0027851 0.00272894 0)
(-0.00330234 0.00281993 0)
(-0.00383144 0.0028789 0)
(-0.00436774 0.0029119 0)
(-0.00490747 0.00292423 0)
(-0.00544758 0.00292028 0)
(-0.00598562 0.00290359 0)
(-0.00651964 0.0028769 0)
(-0.00704804 0.00284229 0)
(-0.00756954 0.00280131 0)
(-0.00808305 0.00275507 0)
(-0.00858767 0.00270437 0)
(-0.0090826 0.00264979 0)
(-0.00956712 0.00259172 0)
(-0.0100406 0.00253045 0)
(-0.0105024 0.0024662 0)
(-0.0109521 0.00239911 0)
(-0.011389 0.00232933 0)
(-0.0118127 0.00225695 0)
(-0.0122227 0.00218209 0)
(-0.0126186 0.00210483 0)
(-0.0129999 0.00202527 0)
(-0.0133661 0.00194349 0)
(-0.013717 0.00185959 0)
(-0.014052 0.00177365 0)
(-0.014371 0.00168577 0)
(-0.0146734 0.00159605 0)
(-0.014959 0.00150458 0)
(-0.0152275 0.00141145 0)
(-0.0154786 0.00131676 0)
(-0.0157119 0.00122062 0)
(-0.0159274 0.00112311 0)
(-0.0161246 0.00102434 0)
(-0.0163035 0.000924401 0)
(-0.0164638 0.000823394 0)
(-0.0166052 0.000721418 0)
(-0.0167278 0.000618572 0)
(-0.0168313 0.000514955 0)
(-0.0169155 0.000410667 0)
(-0.0169805 0.00030581 0)
(-0.017026 0.000200486 0)
(-0.0170521 9.47983e-05 0)
(-0.0170586 -1.11484e-05 0)
(-0.0170456 -0.00011725 0)
(-0.017013 -0.0002234 0)
(-0.0169609 -0.000329491 0)
(-0.0168893 -0.000435415 0)
(-0.0167981 -0.000541061 0)
(-0.0166876 -0.000646316 0)
(-0.0165577 -0.00075107 0)
(-0.0164086 -0.000855206 0)
(-0.0162403 -0.000958612 0)
(-0.0160532 -0.00106117 0)
(-0.0158472 -0.00116276 0)
(-0.0156227 -0.00126327 0)
(-0.0153798 -0.00136258 0)
(-0.0151187 -0.00146056 0)
(-0.0148398 -0.0015571 0)
(-0.0145432 -0.00165208 0)
(-0.0142293 -0.00174538 0)
(-0.0138983 -0.00183687 0)
(-0.0135508 -0.00192645 0)
(-0.0131869 -0.00201398 0)
(-0.0128071 -0.00209936 0)
(-0.0124117 -0.00218246 0)
(-0.0120013 -0.00226316 0)
(-0.0115763 -0.00234134 0)
(-0.0111372 -0.00241687 0)
(-0.0106844 -0.00248961 0)
(-0.0102186 -0.00255939 0)
(-0.00974019 -0.00262601 0)
(-0.00924995 -0.00268923 0)
(-0.00874852 -0.0027487 0)
(-0.00823664 -0.00280399 0)
(-0.00771515 -0.00285446 0)
(-0.00718505 -0.00289926 0)
(-0.00664747 -0.00293718 0)
(-0.00610379 -0.00296662 0)
(-0.00555568 -0.00298542 0)
(-0.00500521 -0.00299074 0)
(-0.00445491 -0.00297899 0)
(-0.00390797 -0.00294571 0)
(-0.00336828 -0.00288559 0)
(-0.00284063 -0.00279255 0)
(-0.00233079 -0.00266 0)
(-0.00184565 -0.00248124 0)
(-0.00139335 -0.00225012 0)
(-0.000983327 -0.00196192 0)
(-0.000626061 -0.0016144 0)
(-0.000332844 -0.00120892 0)
(-0.000121173 -0.000751735 0)
(-1.92983e-05 -0.000256469 0)
(-1.97166e-05 0.000317032 0)
(-0.00012429 0.000899986 0)
(-0.000342594 0.00143216 0)
(-0.00064447 0.00190119 0)
(-0.00101164 0.00230096 0)
(-0.00143227 0.00263102 0)
(-0.00189545 0.0028948 0)
(-0.00239147 0.0030983 0)
(-0.00291206 0.00324894 0)
(-0.00345028 0.00335465 0)
(-0.00400036 0.00342312 0)
(-0.00455756 0.00346139 0)
(-0.00511804 0.00347555 0)
(-0.00567871 0.00347065 0)
(-0.0062371 0.0034508 0)
(-0.00679122 0.00341915 0)
(-0.00733946 0.00337813 0)
(-0.0078805 0.00332954 0)
(-0.00841323 0.00327468 0)
(-0.00893671 0.00321449 0)
(-0.00945013 0.00314965 0)
(-0.00995273 0.00308063 0)
(-0.0104439 0.00300777 0)
(-0.0109229 0.00293134 0)
(-0.0113893 0.00285153 0)
(-0.0118425 0.0027685 0)
(-0.0122819 0.00268239 0)
(-0.0127071 0.0025933 0)
(-0.0131176 0.00250137 0)
(-0.013513 0.00240669 0)
(-0.0138928 0.00230938 0)
(-0.0142565 0.00220955 0)
(-0.0146039 0.00210731 0)
(-0.0149346 0.00200277 0)
(-0.0152481 0.00189604 0)
(-0.0155441 0.00178724 0)
(-0.0158224 0.00167648 0)
(-0.0160826 0.00156387 0)
(-0.0163245 0.00144954 0)
(-0.0165477 0.0013336 0)
(-0.0167521 0.00121616 0)
(-0.0169374 0.00109734 0)
(-0.0171034 0.000977261 0)
(-0.01725 0.000856041 0)
(-0.0173769 0.000733794 0)
(-0.017484 0.00061064 0)
(-0.0175712 0.000486698 0)
(-0.0176384 0.000362088 0)
(-0.0176855 0.000236932 0)
(-0.0177123 0.000111352 0)
(-0.017719 -1.45277e-05 0)
(-0.0177054 -0.000140584 0)
(-0.0176715 -0.000266692 0)
(-0.0176174 -0.000392722 0)
(-0.017543 -0.000518548 0)
(-0.0174484 -0.000644036 0)
(-0.0173337 -0.000769057 0)
(-0.0171989 -0.000893477 0)
(-0.0170442 -0.00101716 0)
(-0.0168698 -0.00113998 0)
(-0.0166757 -0.00126178 0)
(-0.0164621 -0.00138244 0)
(-0.0162293 -0.00150181 0)
(-0.0159774 -0.00161975 0)
(-0.0157066 -0.00173613 0)
(-0.0154174 -0.00185079 0)
(-0.0151098 -0.0019636 0)
(-0.0147843 -0.00207441 0)
(-0.0144412 -0.00218309 0)
(-0.0140807 -0.00228949 0)
(-0.0137034 -0.00239347 0)
(-0.0133095 -0.00249488 0)
(-0.0128996 -0.00259358 0)
(-0.012474 -0.00268944 0)
(-0.0120332 -0.00278229 0)
(-0.0115778 -0.00287199 0)
(-0.0111083 -0.00295836 0)
(-0.0106251 -0.00304119 0)
(-0.010129 -0.00312025 0)
(-0.00962061 -0.00319524 0)
(-0.00910057 -0.00326577 0)
(-0.00856969 -0.00333128 0)
(-0.00802884 -0.00339105 0)
(-0.00747903 -0.00344407 0)
(-0.00692142 -0.00348894 0)
(-0.00635742 -0.00352379 0)
(-0.00578874 -0.00354611 0)
(-0.00521746 -0.00355263 0)
(-0.00464616 -0.00353919 0)
(-0.00407806 -0.00350067 0)
(-0.00351713 -0.00343091 0)
(-0.00296824 -0.0033229 0)
(-0.00243731 -0.00316894 0)
(-0.00193148 -0.00296112 0)
(-0.00145919 -0.00269199 0)
(-0.0010304 -0.00235541 0)
(-0.000656229 -0.00194761 0)
(-0.000348799 -0.0014683 0)
(-0.000126792 -0.000921915 0)
(-2.01045e-05 -0.000319959 0)
(-2.02894e-05 0.000381493 0)
(-0.000128583 0.00107417 0)
(-0.000354892 0.00169766 0)
(-0.00066801 0.00224189 0)
(-0.00104873 0.00270276 0)
(-0.00148453 0.0030816 0)
(-0.00196398 0.00338348 0)
(-0.0024769 0.00361593 0)
(-0.00301472 0.00378779 0)
(-0.00357029 0.00390826 0)
(-0.0041377 0.0039862 0)
(-0.00471213 0.0040296 0)
(-0.00528969 0.0040454 0)
(-0.00586726 0.00403937 0)
(-0.00644233 0.00401612 0)
(-0.0070129 0.00397927 0)
(-0.00757734 0.00393157 0)
(-0.00813431 0.00387508 0)
(-0.0086827 0.00381129 0)
(-0.00922153 0.00374127 0)
(-0.00974998 0.00366582 0)
(-0.0102673 0.00358547 0)
(-0.0107728 0.00350064 0)
(-0.0112658 0.00341162 0)
(-0.0117457 0.00331866 0)
(-0.0122121 0.00322193 0)
(-0.0126643 0.0031216 0)
(-0.0131018 0.00301781 0)
(-0.0135242 0.0029107 0)
(-0.013931 0.0028004 0)
(-0.0143217 0.00268705 0)
(-0.0146959 0.00257076 0)
(-0.0150533 0.00245167 0)
(-0.0153934 0.00232991 0)
(-0.0157159 0.00220561 0)
(-0.0160204 0.00207891 0)
(-0.0163066 0.00194993 0)
(-0.0165742 0.00181882 0)
(-0.0168229 0.00168571 0)
(-0.0170525 0.00155073 0)
(-0.0172626 0.00141401 0)
(-0.0174531 0.00127571 0)
(-0.0176238 0.00113595 0)
(-0.0177745 0.000994861 0)
(-0.0179049 0.000852591 0)
(-0.018015 0.000709275 0)
(-0.0181047 0.00056505 0)
(-0.0181737 0.000420058 0)
(-0.018222 0.000274439 0)
(-0.0182496 0.000128335 0)
(-0.0182564 -1.81108e-05 0)