/*--------------------------------*- C++ -*----------------------------------*\
| =========                 |                                                 |
| \\      /  F ield         | OpenFOAM: The Open Source CFD Toolbox           |
|  \\    /   O peration     | Version:  2512                                  |
|   \\  /    A nd           | Website:  www.openfoam.com                      |
|    \\/     M anipulation  |                                                 |
\*---------------------------------------------------------------------------*/
FoamFile
{
    version     2.0;
    format      ascii;
    arch        "LSB;label=32;scalar=64";
    class       volScalarField;
    location    "0.38";
    object      p;
}
// * * * * * * * * * * * * * * * * * * * * * * * * * * * * * * * * * * * * * //

dimensions      [0 2 -2 0 0 0 0];

internalField   nonuniform List<scalar> 
10000
(
7.14284e-09
1.57488e-06
-2.84158e-05
-9.01333e-05
-0.000176926
-0.000282649
-0.000401696
-0.000528984
-0.00066015
-0.000791532
-0.000920082
-0.0010433
-0.00115914
-0.00126591
-0.00136227
-0.00144712
-0.00151964
-0.00157916
-0.00162516
-0.00165727
-0.0016752
-0.00167879
-0.00166792
-0.00164254
-0.00160264
-0.00154823
-0.00147936
-0.0013961
-0.00129855
-0.00118681
-0.00106102
-0.000921352
-0.000767962
-0.000601043
-0.00042081
-0.00022751
-2.14292e-05
0.0001971
0.000427709
0.00066999
0.000923484
0.00118767
0.00146195
0.00174569
0.00203819
0.00233867
0.00264629
0.00296012
0.00327918
0.00360241
0.00392871
0.00425687
0.00458566
0.00491375
0.00523983
0.00556249
0.00588032
0.00619187
0.00649566
0.00679025
0.0070742
0.00734609
0.00760454
0.00784821
0.00807583
0.0082862
0.00847823
0.00865096
0.00880354
0.00893526
0.00904552
0.0091339
0.00920014
0.00924417
0.00926608
0.00926621
0.00924502
0.00920322
0.00914166
0.00906143
0.00896377
0.00885013
0.00872215
0.00858167
0.0084307
0.00827143
0.00810621
0.00793758
0.00776823
0.00760103
0.00743901
0.00728541
0.00714362
0.00701719
0.00690976
0.00682489
0.00676568
0.00673423
0.0067308
0.00674772
-3.85942e-06
-2.27402e-06
-2.93581e-05
-8.26119e-05
-0.000156302
-0.00024606
-0.000347603
-0.000456865
-0.000570194
-0.000684381
-0.000796671
-0.000904744
-0.00100666
-0.00110078
-0.00118578
-0.00126055
-0.00132422
-0.00137607
-0.00141557
-0.00144227
-0.00145585
-0.00145608
-0.0014428
-0.00141592
-0.00137538
-0.00132116
-0.00125329
-0.00117179
-0.00107674
-0.000968233
-0.000846404
-0.000711392
-0.00056335
-0.000402464
-0.00022895
-4.30474e-05
0.000154963
0.000364751
0.000585955
0.000818169
0.00106094
0.00131376
0.00157606
0.00184721
0.00212654
0.00241329
0.00270666
0.00300576
0.00330963
0.0036173
0.00392769
0.00423969
0.00455209
0.00486369
0.00517321
0.00547936
0.00578079
0.00607616
0.00636409
0.00664323
0.00691225
0.00716983
0.0074147
0.00764561
0.00786138
0.00806092
0.00824324
0.00840747
0.00855283
0.00867867
0.00878449
0.00886989
0.00893468
0.0089788
0.00900239
0.00900577
0.00898944
0.00895405
0.00890046
0.00882967
0.0087429
0.0086415
0.00852705
0.00840126
0.00826602
0.0081234
0.00797559
0.00782492
0.00767388
0.00752508
0.00738126
0.00724527
0.00712006
0.0070086
0.00691383
0.00683847
0.00678466
0.00675374
0.00674763
0.00676461
2.26942e-05
2.2011e-05
-4.73831e-06
-5.40035e-05
-0.000120549
-0.000200794
-0.000291277
-0.00038862
-0.000489703
-0.000591732
-0.000692246
-0.000789122
-0.000880552
-0.000965006
-0.0010412
-0.00110806
-0.00116471
-0.00121044
-0.00124468
-0.00126697
-0.00127698
-0.00127444
-0.00125917
-0.00123103
-0.00118995
-0.00113589
-0.00106884
-0.000988815
-0.000895867
-0.000790085
-0.000671587
-0.000540499
-0.000396965
-0.00024116
-7.32923e-05
0.000106401
0.000297645
0.00050012
0.000713473
0.000937309
0.00117119
0.0014146
0.00166701
0.00192779
0.00219631
0.00247183
0.00275358
0.0030407
0.00333227
0.00362736
0.00392494
0.00422393
0.00452322
0.00482162
0.00511795
0.00541096
0.00569939
0.00598195
0.00625735
0.00652431
0.00678158
0.00702793
0.00726213
0.00748303
0.00768952
0.00788058
0.0080553
0.00821286
0.00835255
0.00847377
0.00857605
0.00865905
0.0087226
0.00876666
0.00879141
0.00879716
0.00878439
0.00875376
0.00870609
0.00864235
0.00856369
0.00847143
0.00836705
0.00825219
0.00812865
0.00799835
0.00786335
0.00772584
0.00758812
0.00745258
0.00732172
0.00719809
0.0070843
0.00698294
0.0068965
0.00682731
0.00677713
0.00674729
0.00674139
0.00676134
8.13347e-05
7.27191e-05
4.22809e-05
-6.98012e-06
-7.0892e-05
-0.000146374
-0.000230474
-0.000320305
-0.000413193
-0.000506714
-0.000598695
-0.000687227
-0.000770661
-0.000847584
-0.000916797
-0.000977296
-0.00102824
-0.00106892
-0.00109878
-0.00111738
-0.00112437
-0.00111948
-0.00110251
-0.00107331
-0.00103179
-0.000977882
-0.000911573
-0.000832864
-0.000741793
-0.000638439
-0.000522908
-0.00039531
-0.000255776
-0.000104475
5.83915e-05
0.000232596
0.000417876
0.000613922
0.000820389
0.0010369
0.00126302
0.00149827
0.00174211
0.00199396
0.00225318
0.00251909
0.00279093
0.00306786
0.00334902
0.00363348
0.00392028
0.00420839
0.00449673
0.00478416
0.00506955
0.00535169
0.00562939
0.00590142
0.00616654
0.00642355
0.00667123
0.00690842
0.00713394
0.00734671
0.00754567
0.00772986
0.00789841
0.00805055
0.00818561
0.00830304
0.00840238
0.00848335
0.00854577
0.00858964
0.00861514
0.00862258
0.00861245
0.00858537
0.00854215
0.00848371
0.00841118
0.00832582
0.00822904
0.00812242
0.00800764
0.00788654
0.00776107
0.00763326
0.00750526
0.00737927
0.00725759
0.00714254
0.00703647
0.00694168
0.00686042
0.0067948
0.00674646
0.00671692
0.00671053
0.00673054
0.000166275
0.000144604
0.000106884
5.4674e-05
-9.51137e-06
-8.30664e-05
-0.000163468
-0.000248293
-0.000335273
-0.000422328
-0.000507573
-0.00058933
-0.00066612
-0.000736669
-0.000799883
-0.000854832
-0.00090073
-0.00093692
-0.000962862
-0.000978131
-0.000982389
-0.000975364
-0.00095685
-0.000926701
-0.000884813
-0.00083111
-0.000765554
-0.000688145
-0.000598916
-0.000497933
-0.000385284
-0.000261066
-0.0001254
2.15526e-05
0.0001796
0.000348529
0.000528087
0.000717982
0.000917881
0.00112742
0.00134618
0.0015737
0.00180946
0.0020529
0.00230342
0.00256035
0.00282295
0.00309043
0.00336194
0.00363662
0.00391352
0.00419166
0.00447
0.00474745
0.0050229
0.00529521
0.00556323
0.00582578
0.00608169
0.00632978
0.00656889
0.0067979
0.00701569
0.00722122
0.00741348
0.00759156
0.00775462
0.00790194
0.00803287
0.00814688
0.00824356
0.00832263
0.00838395
0.00842752
0.00845352
0.00846227
0.00845423
0.00843003
0.00839044
0.00833636
0.00826887
0.00818918
0.00809865
0.00799877
0.00789117
0.00777756
0.00765978
0.00753975
0.00741946
0.00730096
0.00718634
0.00707773
0.00697726
0.006887
0.00680898
0.00674513
0.00669704
0.00666625
0.00665704
0.00667268
0.000271545
0.000233508
0.000185761
0.00012814
6.1216e-05
-1.28251e-05
-9.18443e-05
-0.000173856
-0.00025697
-0.000339422
-0.000419602
-0.000496061
-0.000567508
-0.000632815
-0.000691006
-0.000741238
-0.00078279
-0.000815069
-0.000837583
-0.000849925
-0.000851771
-0.000842865
-0.000823013
-0.000792066
-0.000749913
-0.000696471
-0.000631697
-0.000555588
-0.00046817
-0.000369496
-0.00025964
-0.000138685
-6.74419e-06
0.000136033
0.000289463
0.000453348
0.000627453
0.000811502
0.00100518
0.00120813
0.00141996
0.00164022
0.00186841
0.00210402
0.00234645
0.00259506
0.00284914
0.00310793
0.00337061
0.00363635
0.00390426
0.00417337
0.00444268
0.00471114
0.00497769
0.00524121
0.00550061
0.00575476
0.00600251
0.00624272
0.00647429
0.0066961
0.00690712
0.00710631
0.00729271
0.00746545
0.00762371
0.00776679
0.00789408
0.00800507
0.00809937
0.00817671
0.00823695
0.00828013
0.00830641
0.00831609
0.00830965
0.00828768
0.00825094
0.0082003
0.0081368
0.0080616
0.00797602
0.00788146
0.00777948
0.00767172
0.0075599
0.00744583
0.00733135
0.00721838
0.00710884
0.00700468
0.00690784
0.00682019
0.00674358
0.00667976
0.00663023
0.00659651
0.00658219
0.00658987
0.000391735
0.00033533
0.000275616
0.000210629
0.000138935
6.23486e-05
-1.73091e-05
-9.84474e-05
-0.000179527
-0.000259085
-0.000335761
-0.000408326
-0.000475684
-0.000536861
-0.000590997
-0.000637348
-0.000675282
-0.00070427
-0.00072387
-0.000733714
-0.000733506
-0.000723012
-0.000702051
-0.00067048
-0.000628184
-0.000575082
-0.000511134
-0.000436335
-0.000350702
-0.000254277
-0.000147118
-2.9301e-05
9.90719e-05
0.00023786
0.000386895
0.000545996
0.000714948
0.00089349
0.00108132
0.0012781
0.00148346
0.00169697
0.00191816
0.00214654
0.00238154
0.00262253
0.00286884
0.00311973
0.00337444
0.00363214
0.00389199
0.00415305
0.00441434
0.00467484
0.00493353
0.00518936
0.00544123
0.00568806
0.00592873
0.00616214
0.00638719
0.00660284
0.00680804
0.00700181
0.00718322
0.00735139
0.00750556
0.00764502
0.0077692
0.00787758
0.00796979
0.00804558
0.00810481
0.00814752
0.00817386
0.00818415
0.00817882
0.00815847
0.00812383
0.00807574
0.00801521
0.00794337
0.00786145
0.00777084
0.00767299
0.00756948
0.00746194
0.00735206
0.00724158
0.00713227
0.00702592
0.00692433
0.00682925
0.0067424
0.00666545
0.00659998
0.00654742
0.00650918
0.00648782
0.00648494
0.000521983
0.000446108
0.000373133
0.000299337
0.000221296
0.000140519
5.8569e-05
-2.3314e-05
-0.000103911
-0.000182033
-0.000256568
-0.000326494
-0.000390893
-0.000448944
-0.000499915
-0.000543173
-0.000578177
-0.00060447
-0.000621665
-0.00062944
-0.00062754
-0.00061576
-0.000593931
-0.000561921
-0.000519621
-0.000466958
-0.000403898
-0.000330437
-0.000246578
-0.000152354
-4.78129e-05
6.69779e-05
0.000191921
0.000326892
0.00047174
0.000626305
0.00079039
0.000963744
0.00114608
0.00133709
0.00153642
0.00174367
0.0019584
0.00218013
0.00240832
0.00264237
0.00288163
0.00312539
0.00337292
0.00362345
0.00387612
0.00413004
0.00438427
0.0046378
0.00488965
0.00513879
0.00538417
0.00562472
0.00585934
0.00608695
0.00630649
0.00651692
0.00671724
0.00690647
0.0070837
0.00724807
0.00739882
0.00753527
0.00765683
0.00776301
0.00785345
0.00792788
0.00798618
0.00802837
0.00805462
0.00806521
0.00806058
0.0080413
0.00800808
0.00796174
0.00790326
0.00783372
0.00775432
0.00766638
0.00757131
0.00747059
0.00736579
0.0072585
0.00715036
0.00704303
0.00693817
0.00683743
0.00674244
0.00665475
0.00657589
0.00650727
0.00645023
0.00640607
0.00637615
0.00636094
0.000658064
0.000562235
0.000475193
0.000391558
0.000305986
0.000219736
0.000134168
5.02115e-05
-3.11997e-05
-0.000109129
-0.000182692
-0.000251071
-0.000313515
-0.000369348
-0.000417971
-0.000458866
-0.000491586
-0.000515747
-0.000531026
-0.000537157
-0.000533925
-0.000521161
-0.000498711
-0.000466456
-0.000424304
-0.000372195
-0.000310104
-0.000238019
-0.000155937
-6.38808e-05
3.81057e-05
0.000149961
0.000271599
0.000402911
0.00054377
0.000694031
0.00085351
0.00102198
0.00119916
0.00138478
0.0015785
0.00177996
0.00198874
0.00220437
0.00242634
0.00265409
0.00288698
0.00312434
0.00336548
0.00360963
0.00385597
0.00410364
0.0043517
0.00459921
0.00484517
0.0050886
0.00532847
0.00556371
0.00579326
0.00601605
0.00623103
0.00643717
0.00663349
0.00681902
0.00699286
0.00715416
0.00730216
0.00743617
0.00755562
0.00766002
0.00774899
0.00782228
0.00787975
0.00792143
0.00794745
0.0079581
0.0079538
0.00793512
0.00790272
0.00785742
0.00780015
0.00773197
0.00765403
0.00756762
0.00747408
0.00737484
0.00727139
0.00716524
0.00705794
0.00695106
0.00684614
0.00674472
0.0066483
0.00655831
0.00647613
0.00640303
0.00634025
0.006289
0.00624938
0.00622071
0.000796339
0.000680487
0.000578932
0.000484743
0.00039077
0.00029807
0.000207833
0.000120722
3.74194e-05
-4.13711e-05
-0.000114973
-0.000182752
-0.000244121
-0.000298549
-0.000345568
-0.000384774
-0.000415811
-0.000438373
-0.000452207
-0.000457106
-0.000452901
-0.000439449
-0.000416624
-0.000384327
-0.000342489
-0.000291065
-0.00023003
-0.000159371
-7.90793e-05
1.08262e-05
0.000110304
0.000219301
0.000337746
0.000465549
0.000602601
0.000748774
0.000903897
0.00106776
0.00124012
0.0014207
0.00160922
0.00180534
0.00200865
0.00221871
0.00243504
0.00265709
0.00288427
0.00311595
0.00335142
0.00358997
0.0038308
0.00407305
0.00431582
0.00455819
0.00479919
0.00503785
0.00527314
0.00550403
0.00572945
0.00594834
0.00615967
0.00636243
0.00655561
0.00673827
0.00690949
0.00706844
0.00721433
0.0073465
0.00746435
0.00756738
0.00765522
0.0077276
0.00778439
0.00782557
0.00785129
0.00786182
0.00785756
0.00783905
0.00780694
0.00776204
0.00770523
0.00763756
0.00756014
0.00747421
0.00738107
0.0072821
0.00717872
0.00707239
0.00696457
0.00685674
0.00675037
0.00664689
0.00654768
0.00645408
0.00636732
0.00628857
0.00621899
0.0061597
0.00610957
0.00606675
0.000933665
0.000797962
0.000681712
0.000576516
0.000473514
0.000373625
0.000277904
0.000186778
0.000100697
2.01635e-05
-5.43323e-05
-0.000122326
-0.00018339
-0.000237138
-0.000283227
-0.000321356
-0.000351262
-0.000372724
-0.000385564
-0.00038963
-0.000384795
-0.000370948
-0.000347995
-0.000315867
-0.000274519
-0.000223914
-0.000164033
-9.48579e-05
-1.63841e-05
7.13719e-05
0.000168373
0.000274576
0.00038993
0.000514361
0.000647774
0.000790055
0.000941054
0.00110058
0.00126841
0.00144432
0.00162804
0.00181923
0.00201754
0.00222254
0.00243376
0.00265071
0.00287282
0.00309947
0.00332999
0.00356368
0.00379976
0.00403741
0.00427573
0.00451383
0.00475075
0.00498553
0.00521716
0.00544461
0.00566681
0.00588272
0.00609129
0.00629152
0.00648241
0.006663
0.00683237
0.00698968
0.00713413
0.00726504
0.0073818
0.00748391
0.00757098
0.00764272
0.00769899
0.00773976
0.00776515
0.00777542
0.00777095
0.00775226
0.00772
0.00767493
0.00761793
0.00755
0.00747224
0.00738584
0.00729208
0.00719228
0.00708781
0.00698008
0.0068705
0.00676046
0.00665136
0.00654455
0.00644133
0.00634294
0.00625051
0.00616509
0.00608781
0.00601973
0.00595849
0.00590119
0.0010673
0.000912066
0.000781111
0.000664653
0.000552204
0.000444584
0.000342753
0.000246929
0.000157354
7.43524e-05
-1.75382e-06
-7.06617e-05
-0.000132095
-0.000185802
-0.000231557
-0.00026916
-0.000298446
-0.000319279
-0.000331546
-0.000335153
-0.000330013
-0.000316056
-0.000293225
-0.000261482
-0.000220801
-0.000171157
-0.000112532
-4.49131e-05
3.17021e-05
0.000117296
0.000211841
0.000315307
0.000427656
0.000548833
0.000678756
0.000817328
0.000964418
0.00111986
0.00128346
0.00145502
0.00163429
0.00182097
0.00201472
0.00221513
0.00242178
0.0026342
0.00285183
0.00307409
0.00330034
0.00352988
0.00376197
0.00399578
0.00423047
0.00446512
0.00469881
0.00493058
0.00515943
0.00538432
0.00560419
0.00581799
0.00602469
0.00622325
0.00641267
0.00659199
0.00676028
0.00691665
0.00706032
0.00719057
0.00730679
0.00740844
0.00749513
0.00756653
0.00762249
0.00766297
0.00768805
0.00769798
0.00769312
0.00767398
0.00764118
0.00759545
0.00753767
0.00746881
0.00738994
0.00730222
0.0072069
0.00710527
0.00699867
0.00688844
0.00677595
0.00666255
0.00654957
0.00643829
0.00632995
0.00622572
0.00612664
0.00603366
0.00594792
0.00587043
0.0057977
0.00572577
0.00119484
0.00102047
0.00087492
0.000747082
0.000624925
0.000509196
0.000400785
0.000299728
0.000206093
0.000120037
4.1724e-05
-2.86937e-05
-9.10783e-05
-0.000145301
-0.000191247
-0.000228823
-0.000257956
-0.000278591
-0.000290677
-0.000294174
-0.000289041
-0.000275253
-0.000252793
-0.000221649
-0.000181815
-0.000133274
-7.60157e-05
-1.00369e-05
6.46644e-05
0.000148073
0.00024017
0.000340939
0.000450357
0.000568382
0.000694947
0.000829972
0.00097335
0.00112494
0.00128459
0.00145211
0.00162728
0.00180982
0.00199942
0.00219571
0.00239828
0.00260669
0.00282043
0.00303892
0.00326154
0.00348762
0.00371642
0.00394716
0.00417897
0.00441099
0.00464227
0.00487188
0.0050988
0.00532199
0.0055404
0.00575297
0.00595863
0.00615637
0.00634516
0.00652401
0.00669196
0.00684813
0.0069917
0.00712191
0.00723814
0.00733983
0.00742655
0.00749796
0.00755387
0.00759421
0.00761907
0.00762864
0.00762328
0.00760347
0.0075698
0.00752302
0.00746395
0.00739356
0.00731289
0.00722309
0.00712538
0.00702101
0.00691131
0.00679758
0.00668115
0.00656333
0.00644541
0.00632863
0.00621417
0.00610314
0.00599653
0.00589523
0.00580037
0.00571298
0.00562847
0.00554189
0.00131413
0.00112108
0.000961112
0.000821881
0.000689875
0.000565783
0.000450451
0.00034376
0.000245621
0.000156038
7.50243e-05
2.59574e-06
-6.12343e-05
-0.000116454
-0.000163058
-0.000201055
-0.00023046
-0.000251289
-0.000263553
-0.000267264
-0.000262437
-0.000249091
-0.000227246
-0.000196914
-0.000158103
-0.000110814
-5.50439e-05
9.20275e-06
8.1924e-05
0.00016311
0.000252755
0.000350855
0.000457396
0.00057235
0.000695668
0.000827293
0.000967141
0.0011151
0.00127104
0.0014348
0.00160618
0.00178494
0.00197079
0.00216338
0.00236235
0.00256728
0.00277766
0.00299296
0.00321257
0.00343584
0.00366205
0.00389043
0.00412013
0.00435027
0.00457996
0.00480821
0.00503404
0.00525638
0.00547418
0.00568636
0.00589186
0.00608961
0.00627859
0.00645776
0.00662617
0.00678287
0.00692702
0.00705785
0.00717468
0.00727693
0.00736414
0.00743594
0.00749211
0.00753255
0.0075573
0.00756656
0.00756065
0.00754002
0.00750526
0.00745707
0.00739629
0.00732385
0.00724078
0.00714822
0.00704735
0.00693943
0.00682575
0.0067076
0.00658628
0.00646307
0.00633925
0.00621601
0.00609451
0.00597582
0.0058609
0.00575057
0.00564604
0.00554833
0.00545182
0.00535063
0.00142325
0.00121197
0.00103783
0.000887256
0.000745343
0.000612738
0.000490256
0.00037764
0.000274653
0.000181162
9.70438e-05
2.219e-05
-4.35028e-05
-0.000100136
-0.000147811
-0.000186629
-0.000216684
-0.000238059
-0.00025083
-0.000255064
-0.00025083
-0.000238189
-0.000217193
-0.000187881
-0.000150274
-0.000104389
-5.02362e-05
1.21721e-05
8.28363e-05
0.000161755
0.00024893
0.000344366
0.000448065
0.000560013
0.000680179
0.000808526
0.000945001
0.00108952
0.00124198
0.00140224
0.00157013
0.00174543
0.00192789
0.0021172
0.00231301
0.00251492
0.00272246
0.00293513
0.00315232
0.00337341
0.00359768
0.00382439
0.00405269
0.00428173
0.00451059
0.00473829
0.00496384
0.00518617
0.0054042
0.00561684
0.00582301
0.00602163
0.00621162
0.00639194
0.00656158
0.00671957
0.00686503
0.00699715
0.00711521
0.0072186
0.0073068
0.00737943
0.00743621
0.00747702
0.00750188
0.00751093
0.00750448
0.00748296
0.00744693
0.00739709
0.00733424
0.0072593
0.00717331
0.00707737
0.00697267
0.00686046
0.006742
0.00661859
0.0064915
0.00636203
0.00623141
0.00610084
0.00597145
0.00584431
0.00572034
0.00560037
0.00548564
0.00537724
0.00526855
0.00515281
0.00152042
0.00129139
0.00110333
0.000941533
0.000789721
0.000648535
0.000518759
0.000400009
0.000291913
0.000194212
0.000106667
2.90481e-05
-3.88603e-05
-9.72683e-05
-0.000146374
-0.000186363
-0.000217403
-0.000239645
-0.000253226
-0.000258273
-0.000254905
-0.000243223
-0.000223307
-0.000195215
-0.000158993
-0.000114674
-6.22786e-05
-1.82024e-06
6.67006e-05
0.000143288
0.000227956
0.00032072
0.000421592
0.000530573
0.000647655
0.000772829
0.000906066
0.00104731
0.00119648
0.00135347
0.00151813
0.00169029
0.00186969
0.00205608
0.00224914
0.00244849
0.00265369
0.00286423
0.00307957
0.00329906
0.00352204
0.00374774
0.00397535
0.00420401
0.00443279
0.00466072
0.00488679
0.00510993
0.00532903
0.00554298
0.00575068
0.00595101
0.00614287
0.00632516
0.00649685
0.00665692
0.00680444
0.00693856
0.00705852
0.00716366
0.00725342
0.00732736
0.00738518
0.00742671
0.00745193
0.00746095
0.00745405
0.00743164
0.00739425
0.00734256
0.00727736
0.00719956
0.00711019
0.00701035
0.00690122
0.00678404
0.00666008
0.00653063
0.00639698
0.00626041
0.00612217
0.00598344
0.00584538
0.00570904
0.00557536
0.00544515
0.00531975
0.00520031
0.00507927
0.004949
0.00160404
0.0013577
0.00115601
0.000983138
0.000821495
0.000671716
0.000534566
0.000409539
0.000296143
0.000194006
0.000102776
2.21111e-05
-4.83132e-05
-0.000108806
-0.000159653
-0.000201117
-0.000233439
-0.000256836
-0.000271511
-0.000277649
-0.000275408
-0.000264924
-0.000246306
-0.00021964
-0.000184989
-0.000142402
-9.19098e-05
-3.35283e-05
3.27472e-05
0.000106929
0.000189037
0.000279095
0.000377129
0.000483162
0.00059721
0.000719288
0.000849393
0.000987498
0.00113355
0.00128747
0.00144914
0.0016184
0.00179506
0.00197888
0.00216956
0.00236676
0.00257006
0.00277898
0.00299298
0.00321145
0.00343372
0.00365906
0.00388665
0.00411563
0.00434508
0.00457401
0.0048014
0.00502615
0.00524715
0.00546327
0.00567335
0.00587626
0.00607084
0.00625597
0.00643054
0.00659351
0.00674389
0.00688078
0.00700336
0.00711091
0.00720284
0.00727866
0.00733801
0.00738066
0.00740657
0.00741581
0.00740863
0.00738539
0.00734662
0.00729297
0.00722522
0.00714428
0.00705115
0.00694695
0.00683285
0.0067101
0.00657998
0.00644379
0.00630284
0.00615841
0.00601176
0.00586412
0.00571664
0.0055704
0.00542635
0.00528535
0.0051488
0.00501798
0.00488439
0.00473957
0.00167258
0.00140938
0.00119436
0.00101059
0.000839223
0.000680881
0.000536323
0.000404933
0.000286107
0.000179364
8.42457e-05
3.04153e-07
-7.2887e-05
-0.000135726
-0.000188579
-0.000231783
-0.000265653
-0.000290477
-0.000306514
-0.000313997
-0.000313127
-0.000304075
-0.000286974
-0.000261936
-0.000229047
-0.000188368
-0.000139936
-8.37654e-05
-1.98487e-05
5.1831e-05
0.000131302
0.000218599
0.000313766
0.000416846
0.00052788
0.000646909
0.00077396
0.000909031
0.0010521
0.00120311
0.00136198
0.00152859
0.00170278
0.00188432
0.00207297
0.0022684
0.00247021
0.00267796
0.00289111
0.00310909
0.00333123
0.00355681
0.00378503
0.00401502
0.00424585
0.00447653
0.00470601
0.0049332
0.00515694
0.00537607
0.00558941
0.00579577
0.00599396
0.00618281
0.00636115
0.00652788
0.00668196
0.00682242
0.00694839
0.0070591
0.00715389
0.0072322
0.00729362
0.0073379
0.00736491
0.0073747
0.00736747
0.00734356
0.00730347
0.00724783
0.00717741
0.00709311
0.00699592
0.00688697
0.00676743
0.00663858
0.00650171
0.00635813
0.00620918
0.00605617
0.00590039
0.0057431
0.00558549
0.00542867
0.00527364
0.00512128
0.00497311
0.00483055
0.00468417
0.00452471
0.00172465
0.00144501
0.00121696
0.00102248
0.000841517
0.000674678
0.000522719
0.000384924
0.000260585
0.000149113
4.99475e-05
-3.74598e-05
-0.000113624
-0.000179023
-0.000234106
-0.000279288
-0.000314952
-0.000341449
-0.000359097
-0.000368169
-0.000368906
-0.000361508
-0.000346141
-0.00032294
-0.000292011
-0.000253422
-0.000207215
-0.000153404
-9.19786e-05
-2.29179e-05
5.38172e-05
0.000138276
0.000230518
0.000330611
0.000438623
0.000554624
0.000678664
0.000810772
0.000950952
0.00109918
0.00125542
0.00141957
0.0015915
0.00177104
0.00195796
0.00215195
0.00235266
0.00255964
0.0027724
0.00299038
0.00321293
0.00343933
0.0036688
0.00390046
0.00413337
0.00436653
0.00459889
0.00482931
0.00505662
0.00527963
0.00549711
0.00570783
0.00591054
0.00610402
0.00628705
0.00645845
0.00661712
0.00676202
0.00689223
0.0070069
0.00710529
0.00718679
0.00725094
0.0072974
0.00732601
0.00733677
0.00732982
0.00730548
0.00726422
0.00720664
0.0071335
0.0070457
0.00694423
0.00683021
0.00670484
0.00656941
0.00642524
0.00627368
0.00611609
0.00595382
0.00578823
0.00562059
0.00545215
0.00528409
0.00511745
0.00495317
0.00479291
0.00463819
0.00447874
0.00430444
0.00175891
0.00146325
0.00122244
0.00101746
0.000827045
0.000651801
0.000492483
0.00034828
0.000218378
0.000102086
-1.251e-06
-9.22668e-05
-0.000171565
-0.000239708
-0.000297219
-0.00034459
-0.000382274
-0.000410678
-0.000430167
-0.000441057
-0.000443624
-0.000438104
-0.000424691
-0.000403543
-0.000374775
-0.000338468
-0.000294664
-0.000243378
-0.000184596
-0.000118292
-4.44153e-05
3.70989e-05
0.000126331
0.000223376
0.00032833
0.000441285
0.00056232
0.000691494
0.000828845
0.000974385
0.0011281
0.00128995
0.00145982
0.00163757
0.00182301
0.00201586
0.00221578
0.00242238
0.00263516
0.0028536
0.00307706
0.00330484
0.00353614
0.0037701
0.00400577
0.00424214
0.00447813
0.00471258
0.00494431
0.00517206
0.00539458
0.00561058
0.00581876
0.00601782
0.00620649
0.00638352
0.00654773
0.00669802
0.00683338
0.00695287
0.0070557
0.00714119
0.00720879
0.0072581
0.00728889
0.00730111
0.00729487
0.00727043
0.00722823
0.00716886
0.00709305
0.00700169
0.00689578
0.00677644
0.00664492
0.0065025
0.00635055
0.00619045
0.00602362
0.00585147
0.00567538
0.00549672
0.00531679
0.00513683
0.00495795
0.00478116
0.00460828
0.00444097
0.00426808
0.00407866
0.00177408
0.00146278
0.00120951
0.000994236
0.000794523
0.000610989
0.000444381
0.000293787
0.000158296
3.71298e-05
-7.04618e-05
-0.000165199
-0.000247764
-0.000318805
-0.000378923
-0.000428681
-0.000468592
-0.000499117
-0.000520663
-0.00053359
-0.00053821
-0.000534793
-0.000523558
-0.000504678
-0.000478284
-0.00044446
-0.000403253
-0.000354676
-0.000298713
-0.000235328
-0.00016446
-8.60233e-05
8.75613e-08
9.39916e-05
0.00019581
0.000305664
0.00042366
0.000549889
0.000684426
0.00082732
0.000978594
0.00113823
0.00130618
0.00148232
0.00166648
0.00185843
0.00205786
0.0022644
0.00247758
0.00269689
0.00292172
0.00315138
0.00338508
0.00362194
0.00386103
0.00410131
0.00434168
0.00458096
0.00481794
0.00505132
0.0052798
0.00550202
0.00571664
0.00592229
0.00611761
0.00630128
0.00647205
0.00662873
0.00677021
0.0068955
0.0070037
0.00709404
0.00716591
0.00721883
0.00725249
0.00726679
0.00726177
0.00723766
0.00719486
0.00713392
0.00705557
0.00696068
0.00685026
0.00672545
0.0065875
0.00643775
0.00627758
0.00610845
0.00593183
0.00574918
0.00556196
0.00537161
0.00517951
0.00498699
0.00479523
0.00460533
0.00441926
0.00423887
0.0040521
0.00384715
0.00176892
0.00144236
0.00117691
0.000951548
0.000742714
0.000551014
0.000377195
0.000220253
7.91771e-05
-4.68938e-05
-0.000158794
-0.000257333
-0.000343279
-0.000417357
-0.000480245
-0.00053257
-0.000574899
-0.000607742
-0.000631553
-0.000646732
-0.00065363
-0.000652542
-0.000643712
-0.000627327
-0.000603527
-0.000572403
-0.000534003
-0.00048834
-0.000435397
-0.000375124
-0.00030744
-0.000232241
-0.000149398
-5.8766e-05
3.98019e-05
0.000146456
0.000261335
0.000384564
0.000516255
0.000656498
0.000805353
0.000962844
0.00112895
0.00130359
0.00148664
0.00167788
0.00187704
0.00208379
0.00229769
0.00251825
0.00274488
0.00297688
0.0032135
0.00345384
0.00369697
0.00394184
0.00418732
0.00443223
0.0046753
0.0049152
0.00515056
0.00537999
0.00560205
0.00581532
0.00601835
0.00620975
0.00638816
0.00655231
0.00670099
0.00683312
0.00694771
0.00704389
0.00712095
0.00717834
0.00721568
0.00723277
0.00722961
0.00720637
0.0071634
0.00710123
0.00702056
0.00692226
0.00680735
0.00667697
0.00653241
0.00637503
0.00620628
0.00602767
0.00584072
0.005647
0.00544803
0.00524533
0.00504039
0.00483463
0.00462933
0.00442567
0.00422581
0.00403178
0.00383058
0.0036096
0.00174225
0.00140077
0.00112342
0.00088819
0.000670408
0.000470679
0.000289744
0.000126511
-2.01194e-05
-0.000151098
-0.000267344
-0.000369753
-0.000459178
-0.000536421
-0.000602227
-0.00065728
-0.000702202
-0.000737552
-0.000763832
-0.000781481
-0.000790881
-0.000792354
-0.000786161
-0.000772505
-0.000751532
-0.00072334
-0.000687981
-0.000645466
-0.000595768
-0.000538823
-0.000474531
-0.000402765
-0.000323374
-0.000236187
-0.000141028
-3.77183e-05
7.39162e-05
0.000194039
0.000322802
0.000460334
0.000606738
0.000762076
0.000926366
0.00109957
0.00128158
0.00147225
0.00167132
0.0018785
0.00209339
0.00231552
0.0025443
0.00277908
0.00301909
0.00326346
0.00351123
0.00376134
0.00401267
0.00426398
0.00451398
0.00476129
0.00500449
0.00524212
0.00547267
0.00569464
0.0059065
0.00610676
0.00629397
0.00646675
0.00662381
0.00676393
0.00688603
0.00698914
0.00707244
0.00713529
0.00717721
0.00719794
0.00719739
0.00717566
0.00713308
0.00707013
0.00698748
0.00688599
0.00676669
0.00663073
0.00647944
0.00631421
0.00613656
0.00594806
0.00575032
0.00554496
0.00533364
0.00511795
0.00489949
0.0046798
0.00446025
0.00424214
0.00402783
0.00381951
0.00360328
0.00336561
0.00169289
0.00133685
0.00104787
0.000802985
0.000576432
0.000368818
0.000180876
1.14305e-05
-0.00014071
-0.000276585
-0.000397202
-0.000503541
-0.000596535
-0.000677055
-0.000745908
-0.000803839
-0.000851522
-0.000889569
-0.000918522
-0.000938857
-0.000950988
-0.000955257
-0.000951942
-0.000941259
-0.000923364
-0.00089836
-0.000866301
-0.000827191
-0.000780991
-0.000727622
-0.000666962
-0.000598863
-0.000523151
-0.000439627
-0.000348085
-0.000248315
-0.000140105
-2.32502e-05
0.000102443
0.000237147
0.000381005
0.000534121
0.000696552
0.000868304
0.00104932
0.00123947
0.00143857
0.00164634
0.00186242
0.00208636
0.00231763
0.00255555
0.00279939
0.00304827
0.00330124
0.00355724
0.0038151
0.00407359
0.00433135
0.00458698
0.00483899
0.00508584
0.00532597
0.00555777
0.00577963
0.00598996
0.00618722
0.0063699
0.00653658
0.00668596
0.00681681
0.00692806
0.00701877
0.00708819
0.00713575
0.00716108
0.00716401
0.0071446
0.00710308
0.00703991
0.00695573
0.00685138
0.00672789
0.00658644
0.00642838
0.00625516
0.00606835
0.00586961
0.00566061
0.00544311
0.00521883
0.00498951
0.00475684
0.00452249
0.00428796
0.00405466
0.00382516
0.00360186
0.00336988
0.00311475
0.00161971
0.00124946
0.000949112
0.000694784
0.000459649
0.000244303
4.94777e-05
-0.000126092
-0.00028369
-0.000424446
-0.000549455
-0.000659775
-0.000756412
-0.000840307
-0.000912329
-0.000973281
-0.00102389
-0.00106482
-0.00109666
-0.0011199
-0.00113499
-0.0011423
-0.00114212
-0.00113467
-0.00112012
-0.00109859
-0.00107011
-0.00103469
-0.000992273
-0.00094276
-0.000886013
-0.000821859
-0.000750099
-0.000670506
-0.000582843
-0.000486863
-0.000382316
-0.000268951
-0.00014653
-1.484e-05
0.000126306
0.000277056
0.000437516
0.000607733
0.000787697
0.000977333
0.00117649
0.00138493
0.00160234
0.0018283
0.00206228
0.00230366
0.0025517
0.00280555
0.00306424
0.00332672
0.0035918
0.00385821
0.00412457
0.00438942
0.00465121
0.00490835
0.00515917
0.00540199
0.00563509
0.00585679
0.00606541
0.00625933
0.00643702
0.00659703
0.006738
0.00685873
0.00695815
0.0070354
0.00708979
0.00712084
0.0071283
0.00711212
0.00707249
0.00700979
0.00692466
0.0068179
0.00669054
0.00654378
0.006379
0.00619771
0.00600156
0.00579226
0.00557161
0.00534145
0.00510364
0.00486003
0.00461245
0.0043627
0.00411241
0.00386314
0.00361766
0.00337859
0.00313004
0.00285654
0.0015216
0.00113747
0.000826032
0.000562477
0.000318954
9.6041e-05
-0.000105539
-0.000287141
-0.000450144
-0.000595763
-0.000725173
-0.000839513
-0.000939859
-0.00102722
-0.00110253
-0.00116664
-0.00122035
-0.00126436
-0.00129928
-0.00132566
-0.00134395
-0.00135455
-0.00135777
-0.00135383
-0.00134293
-0.00132517
-0.00130059
-0.00126917
-0.00123085
-0.00118552
-0.00113301
-0.00107312