/*--------------------------------*- C++ -*----------------------------------*\
| =========                 |                                                 |
| \\      /  F ield         | OpenFOAM: The Open Source CFD Toolbox           |
|  \\    /   O peration     | Version:  2512                                  |
|   \\  /    A nd           | Website:  www.openfoam.com                      |
|    \\/     M anipulation  |                                                 |
\*---------------------------------------------------------------------------*/
FoamFile
{
    version     2.0;
    format      ascii;
    arch        "LSB;label=32;scalar=64";
    class       volScalarField;
    location    "0.46";
    object      p;
}
// * * * * * * * * * * * * * * * * * * * * * * * * * * * * * * * * * * * * * //

dimensions      [0 2 -2 0 0 0 0];

internalField   nonuniform List<scalar> 
10000
(
5.42611e-09
2.12299e-06
-2.96801e-05
-9.56611e-05
-0.000188932
-0.000303291
-0.000432798
-0.00057205
-0.000716369
-0.000861801
-0.00100507
-0.00114346
-0.00127472
-0.00139702
-0.0015089
-0.00160916
-0.00169687
-0.0017713
-0.00183188
-0.00187818
-0.00190989
-0.00192678
-0.00192872
-0.00191559
-0.00188736
-0.00184403
-0.0017856
-0.00171212
-0.00162367
-0.00152032
-0.00140218
-0.00126937
-0.00112204
-0.000960359
-0.000784515
-0.000594747
-0.000391326
-0.000174565
5.51804e-05
0.00029749
0.000551886
0.000817836
0.00109474
0.00138193
0.00167864
0.00198403
0.00229721
0.00261718
0.00294286
0.00327313
0.00360673
0.00394237
0.00427866
0.00461419
0.00494747
0.00527698
0.00560114
0.00591836
0.00622703
0.00652556
0.00681237
0.00708592
0.00734471
0.00758728
0.00781228
0.00801844
0.00820461
0.00836976
0.00851301
0.00863364
0.00873108
0.00880494
0.00885504
0.00888137
0.00888415
0.0088638
0.00882097
0.00875649
0.00867141
0.00856701
0.00844477
0.00830635
0.00815363
0.00798869
0.00781378
0.00763135
0.00744401
0.00725454
0.00706591
0.00688124
0.00670382
0.0065371
0.00638467
0.00625024
0.00613754
0.00605014
0.00599096
0.00596166
0.00596164
0.0059818
-6.23476e-06
-3.90687e-06
-3.26882e-05
-8.98885e-05
-0.000169481
-0.000266932
-0.000377806
-0.000497778
-0.000622932
-0.00074983
-0.000875516
-0.000997481
-0.00111361
-0.00122212
-0.00132158
-0.00141077
-0.00148874
-0.00155471
-0.00160807
-0.00164833
-0.00167513
-0.00168819
-0.0016873
-0.00167233
-0.0016432
-0.00159986
-0.00154229
-0.00147051
-0.00138458
-0.00128456
-0.00117052
-0.0010426
-0.000900926
-0.000745665
-0.000577006
-0.000395183
-0.000200466
6.83575e-06
0.000226369
0.000457723
0.000700428
0.000953967
0.00121775
0.00149114
0.00177338
0.00206369
0.0023612
0.00266495
0.00297394
0.00328707
0.00360318
0.00392103
0.00423932
0.00455673
0.00487185
0.00518326
0.00548948
0.00578904
0.00608042
0.00636217
0.00663281
0.00689092
0.00713509
0.00736401
0.00757642
0.00777115
0.00794717
0.00810353
0.00823944
0.00835425
0.00844746
0.00851875
0.00856796
0.00859513
0.00860048
0.00858445
0.00854766
0.00849092
0.00841525
0.00832185
0.00821212
0.00808765
0.00795021
0.00780175
0.00764436
0.00748034
0.0073121
0.00714224
0.00697346
0.00680853
0.00665052
0.00650238
0.00636722
0.00624813
0.0061481
0.00606982
0.00601524
0.00598537
0.00598171
0.00600192
1.96917e-05
2.02864e-05
-7.81331e-06
-6.07214e-05
-0.000132729
-0.000220091
-0.000319172
-0.000426373
-0.000538372
-0.000652162
-0.000765108
-0.000874925
-0.000979648
-0.00107762
-0.00116745
-0.00124796
-0.00131821
-0.00137741
-0.00142494
-0.00146029
-0.00148306
-0.00149296
-0.00148975
-0.00147327
-0.0014434
-0.00140006
-0.00134324
-0.00127293
-0.00118915
-0.00109196
-0.000981435
-0.000857676
-0.000720815
-0.000571007
-0.000408436
-0.000233331
-4.59534e-05
0.000153394
0.000364363
0.000586557
0.000819522
0.00106275
0.00131568
0.00157767
0.00184803
0.00212598
0.00241069
0.00270125
0.00299669
0.00329596
0.00359796
0.00390151
0.00420538
0.0045083
0.00480895
0.00510597
0.00539797
0.00568354
0.00596128
0.0062298
0.00648772
0.0067337
0.00696641
0.00718463
0.00738717
0.00757296
0.00774103
0.00789049
0.00802064
0.00813085
0.0082207
0.00828988
0.00833827
0.00836594
0.00837313
0.00836025
0.00832792
0.00827693
0.00820825
0.00812306
0.00802267
0.00790862
0.00778256
0.00764634
0.00750197
0.00735157
0.00719742
0.00704191
0.00688754
0.00673691
0.00659269
0.0064576
0.00633437
0.00622567
0.00613405
0.00606179
0.00601051
0.00598135
0.00597793
0.00600208
8.06523e-05
7.34118e-05
4.1713e-05
-1.10595e-05
-8.02184e-05
-0.00016249
-0.000254728
-0.000353868
-0.000457047
-0.000561659
-0.000665368
-0.000766121
-0.000862139
-0.000951895
-0.00103408
-0.00110761
-0.00117156
-0.00122519
-0.00126786
-0.0012991
-0.00131848
-0.00132571
-0.00132053
-0.00130278
-0.00127231
-0.00122904
-0.00117294
-0.00110397
-0.00102215
-0.000927536
-0.000820176
-0.000700168
-0.000567632
-0.000422713
-0.000265586
-9.64674e-05
8.4389e-05
0.00027669
0.000480105
0.000694249
0.000918687
0.00115292
0.00139641
0.00164855
0.00190866
0.002176
0.00244977
0.00272909
0.00301304
0.00330061
0.00359074
0.0038823
0.00417412
0.00446498
0.00475361
0.00503873
0.005319
0.00559309
0.00585965
0.00611735
0.00636489
0.00660097
0.00682437
0.0070339
0.00722845
0.00740698
0.00756859
0.00771245
0.00783788
0.00794432
0.00803136
0.00809872
0.00814632
0.00817423
0.00818268
0.00817209
0.00814308
0.00809639
0.00803299
0.00795399
0.00786066
0.00775447
0.007637
0.00751002
0.00737541
0.00723519
0.00709151
0.00694658
0.00680275
0.00666241
0.006528
0.006402
0.00628685
0.00618496
0.00609863
0.00602993
0.00598047
0.00595162
0.00594811
0.00597347
0.000170864
0.000150059
0.000110776
5.49561e-05
-1.44535e-05
-9.4642e-05
-0.000182912
-0.000276666
-0.000373474
-0.000471099
-0.000567508
-0.000660895
-0.000749673
-0.000832457
-0.000908069
-0.0009755
-0.0010339
-0.00108255
-0.00112088
-0.00114839
-0.00116471
-0.00116952
-0.00116258
-0.0011437
-0.00111274
-0.00106962
-0.00101428
-0.000946677
-0.000866826
-0.000774754
-0.000670512
-0.000554182
-0.000425873
-0.000285717
-0.000133878
2.94404e-05
0.000203996
0.000389513
0.000585677
0.000792123
0.00100843
0.00123412
0.00146867
0.00171151
0.00196199
0.0022194
0.00248295
0.00275182
0.00302512
0.00330188
0.00358109
0.00386165
0.00414245
0.00442233
0.00470005
0.00497439
0.00524408
0.00550782
0.00576434
0.00601235
0.0062506
0.00647787
0.00669297
0.00689477
0.0070822
0.00725429
0.00741015
0.00754902
0.00767023
0.00777327
0.00785774
0.00792341
0.00797018
0.00799813
0.00800752
0.00799875
0.0079724
0.00792923
0.00787015
0.00779624
0.00770874
0.00760902
0.00749863
0.00737922
0.00725261
0.00712069
0.00698548
0.00684906
0.00671361
0.00658134
0.0064545
0.00633534
0.00622609
0.00612892
0.00604592
0.00597904
0.00592984
0.00589984
0.00589389
0.00591576
0.000284015
0.000245857
0.000195949
0.000134383
6.20734e-05
-1.86296e-05
-0.000105415
-0.000196139
-0.000288771
-0.000381409
-0.000472319
-0.00055994
-0.000642881
-0.000719925
-0.000790021
-0.000852257
-0.000905866
-0.000950199
-0.000984714
-0.00100896
-0.00102258
-0.00102527
-0.0010168
-0.000996978
-0.00096568
-0.000922805
-0.000868285
-0.000802084
-0.000724201
-0.000634651
-0.000533474
-0.000420739
-0.000296545
-0.00016101
-1.42826e-05
0.000143447
0.000311955
0.000490981
0.000680234
0.000879363
0.00108796
0.00130559
0.00153175
0.00176589
0.00200738
0.00225555
0.00250965
0.00276889
0.00303241
0.00329928
0.00356854
0.00383913
0.00410997
0.00437994
0.00464787
0.00491258
0.00517282
0.00542737
0.00567499
0.00591444
0.00614452
0.00636404
0.00657186
0.00676688
0.00694809
0.00711454
0.00726537
0.00739986
0.00751737
0.00761739
0.00769956
0.00776364
0.00780957
0.00783742
0.00784743
0.00784002
0.00781574
0.00777533
0.00771967
0.0076498
0.00756692
0.00747236
0.00736757
0.00725416
0.00713385
0.00700842
0.00687978
0.00674989
0.00662078
0.0064945
0.00637312
0.0062587
0.0061533
0.00605887
0.00597734
0.00591051
0.0058599
0.00582703
0.00581619
0.00583059
0.000414301
0.000356488
0.000293764
0.000224301
0.000146861
6.34174e-05
-2.40619e-05
-0.000113851
-0.00020428
-0.00029377
-0.000380865
-0.000464239
-0.000542701
-0.000615208
-0.000680841
-0.000738803
-0.000788419
-0.000829109
-0.000860388
-0.000881854
-0.000893176
-0.00089408
-0.000884348
-0.000863809
-0.000832334
-0.000789826
-0.000736213
-0.000671458
-0.000595552
-0.000508499
-0.000410327
-0.000301096
-0.000180892
-4.98153e-05
9.19998e-05
0.00024438
0.000407121
0.000579985
0.000762695
0.000954926
0.0011563
0.00136639
0.00158473
0.00181079
0.00204399
0.00228367
0.00252913
0.00277959
0.00303424
0.00329219
0.0035525
0.00381416
0.00407613
0.00433732
0.00459661
0.00485284
0.00510483
0.00535136
0.00559125
0.00582329
0.00604632
0.00625917
0.00646075
0.00664999
0.00682588
0.00698752
0.00713407
0.00726481
0.00737914
0.00747655
0.0075567
0.00761936
0.00766446
0.00769208
0.00770245
0.00769596
0.00767318
0.00763481
0.0075817
0.00751486
0.00743545
0.00734475
0.00724416
0.00713522
0.00701955
0.00689887
0.00677497
0.0066497
0.00652497
0.00640267
0.00628474
0.00617308
0.00606956
0.00597599
0.00589413
0.00582562
0.00577192
0.0057345
0.00571666
0.00572066
0.000556493
0.000477703
0.000400683
0.000321703
0.000237398
0.000149414
5.94455e-05
-3.1154e-05
-0.00012106
-0.00020899
-0.000293738
-0.000374213
-0.000449425
-0.000518492
-0.000580637
-0.000635187
-0.000681563
-0.000719265
-0.000747876
-0.000767045
-0.000776482
-0.000775943
-0.000765237
-0.000744212
-0.000712745
-0.000670742
-0.000618138
-0.000554895
-0.000480992
-0.000396426
-0.000301219
-0.000195417
-7.9091e-05
4.76732e-05
0.00018476
0.000332015
0.000489254
0.000656261
0.000832782
0.00101851
0.0012131
0.00141615
0.00162723
0.00184582
0.00207139
0.00230329
0.00254085
0.00278335
0.00303
0.00327993
0.00353225
0.00378598
0.0040401
0.00429358
0.00454531
0.00479417
0.00503901
0.00527865
0.00551192
0.00573764
0.00595468
0.00616191
0.00635824
0.00654262
0.00671407
0.00687169
0.00701467
0.00714229
0.00725396
0.00734918
0.00742761
0.00748902
0.00753333
0.00756063
0.00757112
0.00756521
0.00754342
0.00750644
0.00745511
0.00739039
0.00731341
0.0072254
0.00712772
0.00702184
0.00690932
0.00679179
0.00667096
0.00654859
0.00642644
0.00630633
0.00619003
0.00607931
0.0059759
0.00588147
0.0057976
0.00572582
0.00566751
0.00562402
0.00559747
0.00558896
0.000706037
0.000605617
0.000513342
0.000423679
0.000331188
0.000237254
0.000143349
5.04939e-05
-4.02979e-05
-0.000128011
-0.000211685
-0.000290447
-0.000363496
-0.000430112
-0.000489666
-0.000541605
-0.000585449
-0.000620789
-0.000647279
-0.000664627
-0.000672587
-0.000670957
-0.000659575
-0.000638306
-0.000607044
-0.000565706
-0.000514231
-0.000452577
-0.00038072
-0.000298652
-0.000206387
-0.000103955
8.588e-06
0.000131171
0.000263696
0.000406031
0.000558014
0.000719451
0.000890113
0.00106972
0.00125795
0.00145444
0.00165876
0.00187046
0.002089
0.0023138
0.0025442
0.0027795
0.00301896
0.00326174
0.00350697
0.00375371
0.00400097
0.00424773
0.00449293
0.00473547
0.00497422
0.00520802
0.00543572
0.00565617
0.00586825
0.00607084
0.00626286
0.00644329
0.00661114
0.00676552
0.00690562
0.00703074
0.00714026
0.00723372
0.00731073
0.00737109
0.0074147
0.00744163
0.00745209
0.00744644
0.00742522
0.00738908
0.00733883
0.00727543
0.00719994
0.00711358
0.00701764
0.00691356
0.00680282
0.006687
0.00656772
0.00644666
0.00632549
0.0062059
0.00608958
0.00597817
0.00587326
0.00577641
0.00568905
0.00561257
0.00554827
0.00549741
0.00546083
0.00543842
0.000858977
0.000736718
0.000628627
0.000527466
0.000425808
0.000324837
0.000225841
0.00012955
3.67026e-05
-5.19341e-05
-0.000135632
-0.000213713
-0.000285559
-0.000350616
-0.000408394
-0.000458459
-0.000500437
-0.000534011
-0.000558908
-0.000574898
-0.000581786
-0.000579419
-0.000567662
-0.000546403
-0.000515558
-0.000475058
-0.000424843
-0.000364871
-0.000295122
-0.000215579
-0.000126245
-2.71393e-05
8.1699e-05
0.000200214
0.000328328
0.000465933
0.00061289
0.000769026
0.00093414
0.00110798
0.00129025
0.00148062
0.0016787
0.00188404
0.00209615
0.00231448
0.0025384
0.00276725
0.00300029
0.00323675
0.00347575
0.00371639
0.00395772
0.00419873
0.00443839
0.0046756
0.00490927
0.00513824
0.00536139
0.00557758
0.00578568
0.00598459
0.00617323
0.00635058
0.00651566
0.00666757
0.00680549
0.00692872
0.00703663
0.00712875
0.00720469
0.00726423
0.00730726
0.00733383
0.00734413
0.00733853
0.00731752
0.00728174
0.00723198
0.00716917
0.00709434
0.00700867
0.00691344
0.00681
0.00669981
0.00658438
0.00646527
0.00634407
0.0062224
0.00610184
0.005984
0.0058704
0.00576254
0.00566185
0.00556966
0.00548721
0.00541574
0.00535644
0.00530883
0.00527161
0.00101187
0.000867853
0.000743665
0.000630463
0.000518941
0.000410107
0.000305114
0.000204439
0.000108573
1.80522e-05
-6.65996e-05
-0.000144892
-0.000216386
-0.000280678
-0.000337412
-0.000386278
-0.00042701
-0.000459377
-0.000483182
-0.000498262
-0.000504481
-0.000501725
-0.000489896
-0.000468911
-0.000438706
-0.000399223
-0.000350412
-0.000292235
-0.000224668
-0.000147691
-6.12944e-05
3.45138e-05
0.000139707
0.000254252
0.000378091
0.000511136
0.000653275
0.000804362
0.00096422
0.00113263
0.00130932
0.00149399
0.00168628
0.00188578
0.00209203
0.0023045
0.0025226
0.00274569
0.00297306
0.00320397
0.00343757
0.00367298
0.00390926
0.00414544
0.00438049
0.00461335
0.00484291
0.00506805
0.00528763
0.00550052
0.0057056
0.00590177
0.00608794
0.00626307
0.0064262
0.00657639
0.00671284
0.0068348
0.00694166
0.0070329
0.00710815
0.00716714
0.00720975
0.00723602
0.00724612
0.00724039
0.00721931
0.00718349
0.00713371
0.00707086
0.00699596
0.00691015
0.00681467
0.00671084
0.00660007
0.00648383
0.00636363
0.00624099
0.00611746
0.00599457
0.00587383
0.00575669
0.00564455
0.00553875
0.00544052
0.00535098
0.00527133
0.00520271
0.00514335
0.00509079
0.00116168
0.000996174
0.000855818
0.000730249
0.000608368
0.000491064
0.000379386
0.000273577
0.000173905
8.07077e-05
-5.68304e-06
-8.49574e-05
-0.000156837
-0.000221064
-0.000277414
-0.000325698
-0.000365752
-0.000397431
-0.00042062
-0.000435224
-0.00044116
-0.00043836
-0.000426763
-0.000406318
-0.00037698
-0.000338706
-0.000291457
-0.000235198
-0.000169904
-9.55481e-05
-1.21126e-05
8.04075e-05
0.000182002
0.000292654
0.000412331
0.000540969
0.00067848
0.000824745
0.000979618
0.00114291
0.00131437
0.00149374
0.00168068
0.00187483
0.00207575
0.00228293
0.00249582
0.00271381
0.00293623
0.00316233
0.00339131
0.00362231
0.00385441
0.00408664
0.004318
0.00454743
0.00477382
0.00499607
0.00521303
0.00542358
0.00562659
0.00582093
0.00600552
0.00617931
0.0063413
0.00649055
0.00662623
0.00674757
0.00685395
0.00694482
0.00701977
0.00707853
0.00712095
0.00714703
0.00715695
0.00715099
0.00712963
0.00709347
0.00704324
0.00697981
0.0069042
0.0068175
0.00672092
0.00661577
0.00650341
0.00638528
0.00626283
0.00613756
0.00601095
0.00588447
0.00575958
0.00563766
0.00552004
0.00540799
0.00530263
0.00520501
0.00511633
0.00503766
0.00496602
0.00489782
0.00130574
0.0011191
0.000962652
0.00082455
0.000691993
0.00056579
0.000446902
0.000335371
0.000231267
0.000134746
4.59596e-05
-3.49485e-05
-0.000107849
-0.000172625
-0.000229182
-0.00027744
-0.000317334
-0.000348811
-0.000371833
-0.000386373
-0.0003924
-0.000389892
-0.000378831
-0.000359194
-0.000330957
-0.000294094
-0.000248574
-0.000194371
-0.000131454
-5.97902e-05
2.06444e-05
0.000109867
0.000207886
0.000314706
0.000430316
0.000554677
0.000687726
0.000829374
0.000979504
0.00113796
0.00130452
0.00147895
0.00166096
0.00185021
0.00204629
0.00224873
0.002457
0.00267052
0.00288864
0.00311066
0.00333577
0.00356314
0.00379188
0.00402102
0.00424956
0.00447645
0.0047006
0.00492088
0.00513617
0.00534531
0.00554716
0.00574059
0.0059245
0.0060978
0.00625947
0.00640857
0.0065442
0.00666561
0.00677211
0.00686314
0.00693825
0.00699715
0.00703965
0.00706574
0.00707554
0.00706934
0.00704758
0.00701083
0.0069598
0.00689536
0.00681848
0.00673024
0.00663183
0.00652452
0.00640966
0.00628865
0.00616291
0.00603391
0.0059031
0.0057719
0.00564171
0.00551388
0.00538969
0.00527033
0.00515688
0.00505032
0.00495184
0.00486253
0.00477821
0.00469423
0.00144164
0.0012343
0.00106191
0.000911233
0.000767823
0.000632431
0.000505952
0.000388254
0.000279228
0.000178854
8.71263e-05
4.0355e-06
-7.04312e-05
-0.000136295
-0.000193578
-0.000242307
-0.000282515
-0.00031424
-0.000337517
-0.000352381
-0.000358857
-0.000356973
-0.000346748
-0.000328188
-0.00030129
-0.000266046
-0.000222438
-0.000170438
-0.000110015
-4.11331e-05
3.62399e-05
0.000122137
0.000216586
0.000319613
0.000431227
0.000551414
0.000680143
0.000817354
0.000962958
0.00111682
0.00127878
0.00144862
0.00162607
0.00181084
0.00200255
0.00220075
0.00240495
0.00261459
0.00282906
0.00304766
0.00326962
0.00349413
0.00372028
0.00394714
0.00417371
0.00439894
0.00462174
0.00484097
0.0050555
0.00526415
0.00546577
0.0056592
0.00584332
0.006017
0.00617921
0.00632895
0.00646531
0.00658748
0.00669475
0.00678651
0.0068623
0.00692175
0.00696468
0.00699101
0.00700086
0.00699447
0.00697225
0.00693476
0.00688269
0.00681687
0.00673826
0.00664792
0.00654703
0.00643683
0.00631865
0.00619387
0.0060639
0.00593018
0.00579413
0.00565716
0.00552063
0.00538585
0.00525407
0.00512646
0.00500405
0.00488775
0.00477882
0.00467837
0.00458106
0.00448124
0.00156721
0.00133962
0.00115152
0.000988307
0.000833965
0.0006892
0.000554869
0.000430677
0.000316344
0.000211699
0.000116587
3.0854e-05
-4.56478e-05
-0.000113064
-0.000171529
-0.000221175
-0.000262132
-0.000294518
-0.00031844
-0.000333995
-0.000341268
-0.000340331
-0.000331236
-0.00031402
-0.000288707
-0.000255302
-0.000213792
-0.000164155
-0.000106362
-4.03721e-05
3.38621e-05
0.000116388
0.000207251
0.000306496
0.00041416
0.000530256
0.000654779
0.000787701
0.000928964
0.00107847
0.00123608
0.00140162
0.00157487
0.00175554
0.0019433
0.00213774
0.00233839
0.00254471
0.00275612
0.00297195
0.00319144
0.00341379
0.00363813
0.0038635
0.00408893
0.00431335
0.00453566
0.00475474
0.00496941
0.00517849
0.0053808
0.00557515
0.00576037
0.00593533
0.00609894
0.00625015
0.00638803
0.00651171
0.00662044
0.00671358
0.00679059
0.0068511
0.00689485
0.00692175
0.00693187
0.00692542
0.00690279
0.00686449
0.0068112
0.00674373
0.00666302
0.00657012
0.00646617
0.00635243
0.00623021
0.00610086
0.00596581
0.00582646
0.00568424
0.00554053
0.00539668
0.005254
0.00511372
0.00497698
0.00484479
0.00471806
0.00459808
0.00448603
0.00437548
0.00425978
0.00168045
0.00143308
0.00122953
0.00105389
0.000888616
0.00073439
0.000592038
0.000461113
0.000341185
0.000231941
0.000133086
4.43289e-05
-3.46027e-05
-0.00010397
-0.000164019
-0.000214984
-0.000257081
-0.000290506
-0.000315438
-0.000332037
-0.000340439
-0.000340759
-0.000333087
-0.000317489
-0.000294007
-0.000262663
-0.000223453
-0.000176357
-0.000121346
-5.83703e-05
1.26272e-05
9.17114e-05
0.000178947
0.000274401
0.000378134
0.000490188
0.00061059
0.00073934
0.000876416
0.00102175
0.00117525
0.00133676
0.00150611
0.00168303
0.00186724
0.00205834
0.00225591
0.00245943
0.00266835
0.00288201
0.00309968
0.00332057
0.0035438
0.00376846
0.00399353
0.00421797
0.00444067
0.00466047
0.00487618
0.00508661
0.00529053
0.00548672
0.00567398
0.00585112
0.00601701
0.00617057
0.0063108
0.00643679
0.00654773
0.00664292
0.00672179
0.00678391
0.00682896
0.00685683
0.00686753
0.00686124
0.0068383
0.00679922
0.00674463
0.00667533
0.00659224
0.0064964
0.00638893
0.00627109
0.00614418
0.00600956
0.00586865
0.00572285
0.00557359
0.00542225
0.00527019
0.00511872
0.00496907
0.00482239
0.00467968
0.00454184
0.00441026
0.00428618
0.00416214
0.00403052
0.00177951
0.00151283
0.00129412
0.0011062
0.000930057
0.000766353
0.000615883
0.000478067
0.000352336
0.000238241
0.000135354
4.32594e-05
-3.84332e-05
-0.000110098
-0.000172086
-0.000224724
-0.000268315
-0.00030313
-0.000329414
-0.000347388
-0.000357239
-0.000359123
-0.000353162
-0.000339452
-0.000318056
-0.000289006
-0.000252306
-0.000207943
-0.000155883
-9.60667e-05
-2.84243e-05
4.71258e-05
0.000130667
0.00022229
0.000322081
0.000430115
0.000546446
0.000671108
0.000804112
0.000945433
0.001095
0.00125272
0.00141843
0.00159191
0.00177291
0.00196107
0.00215599
0.0023572
0.00256415
0.0027762
0.00299266
0.00321274
0.00343558
0.00366024
0.00388574
0.00411101
0.00433493
0.00455633
0.00477399
0.00498667
0.00519313
0.00539211
0.00558234
0.00576261
0.00593172
0.00608853
0.00623199
0.00636114
0.00647509
0.0065731
0.00665453
0.00671888
0.00676581
0.00679512
0.00680679
0.00680096
0.00677793
0.00673817
0.0066823
0.00661108
0.00652542
0.00642634
0.00631497
0.00619255
0.0060604
0.00591988
0.0057724
0.0056194
0.0054623
0.00530252
0.00514142
0.00498033
0.0048205
0.00466309
0.00450915
0.00435957
0.00421586
0.00407935
0.00394156
0.00379392
0.00186264
0.00157712
0.00134356
0.00114354
0.000956643
0.000783491
0.00062487
0.000480071
0.000348392
0.000229255
0.000122111
2.64253e-05
-5.83069e-05
-0.000132566
-0.000196805
-0.000251437
-0.00029684
-0.000333366
-0.000361325
-0.000380993
-0.000392599
-0.000396343
-0.000392384
-0.000380837
-0.000361782
-0.000335267
-0.000301305
-0.000259883
-0.000210959
-0.000154466
-9.03208e-05
-1.84254e-05
6.1325e-05
0.000149047
0.000244857
0.000348854
0.000461128
0.000581748
0.00071076
0.000848178
0.000993972
0.00114807
0.00131037
0.00148068
0.00165877
0.00184434
0.00203701
0.00223633
0.00244179
0.00265277
0.0028686
0.00308849
0.00331159
0.00353697
0.00376365
0.00399054
0.00421651
0.00444036
0.00466086
0.00487673
0.00508667
0.00528939
0.00548357
0.00566793
0.00584122
0.00600225
0.00614989
0.0062831
0.00640094
0.00650259
0.00658735
0.00665466
0.0067041
0.00673543
0.00674856
0.00674359
0.00672077
0.00668054
0.00662349
0.00655036
0.00646203
0.00635951
0.00624395
0.00611657
0.00597869
0.00583171
0.00567705
0.00551616
0.00535049
0.0051815
0.00501057
0.00483908
0.0046683
0.00449944
0.00433357
0.00417164
0.00401526
0.0038659
0.00371406
0.00355026
0.0019282
0.0016243
0.00137621
0.00116431
0.000966793
0.000784267
0.00061751
0.000465686
0.000327963
0.000203647
9.20734e-05
-7.40672e-06
-9.5414e-05
-0.000172527
-0.000239285
-0.00029619
-0.000343705
-0.000382245
-0.000412182
-0.000433842
-0.000447504
-0.000453405
-0.000451731
-0.000442622
-0.000426175
-0.00040245
-0.000371467
-0.000333208
-0.000287626
-0.000234644
-0.000174165
-0.000106073
-3.0238e-05
5.3482e-05
0.00014523
0.000245139
0.000353331
0.000469914
0.000594972
0.000728556
0.000870674
0.0010213
0.00118035
0.00134771
0.00152316
0.00170643
0.00189719
0.00209502
0.00229943
0.00250983
0.00272554
0.00294582
0.00316982
0.0033966
0.00362518
0.00385447
0.00408331
0.00431048
0.00453471
0.00475468
0.00496907
0.00517651
0.00537563
0.0055651
0.00574359
0.00590984
0.00606265
0.0062009
0.00632358
0.00642979
0.00651874
0.00658981
0.00664251
0.00667652
0.0066917
0.00668809
0.00666589
0.0066255
0.00656748
0.00649253
0.00640153
0.00629548
0.0061755
0.00604286
0.00589887
0.00574494
0.00558254
0.00541314
0.00523824
0.00505932
0.00487783
0.00469518
0.00451271
0.00433169
0.00415321
0.00397831
0.00380872
0.00364606
0.00347983
0.00329962
0.00197463
0.0016528
0.0013905
0.00116695
0.000958982
0.000767196
0.000592353
0.000433497
0.000289682
0.000160098
4.39613e-05
-5.94854e-05
-0.000150961
-0.000231143
-0.000300661
-0.0003601
-0.000409996
-0.00045083
-0.000483031
-0.000506976
-0.000522988
-0.000531335
-0.000532233
-0.000525843
-0.000512281
-0.000491614
-0.000463863
-0.000429009
-0.000386998
-0.000337741
-0.000281126
-0.000217016
-0.000145255
-6.56763e-05
2.18924e-05
0.000117619
0.000221664
0.00033417
0.000455262
0.00058503
0.000723525
0.000870761
0.0010267
0.00119126
0.00136427
0.0015455
0.00173464
0.00193132
0.00213507
0.00234532
0.00256142
0.00278263
0.00300812
0.00323695
0.00346814
0.00370057
0.00393308
0.00416441
0.00439327
0.00461829
0.00483809
0.00505126
0.00525636
0.00545199
0.00563674
0.00580928
0.00596833
0.00611268
0.00624122
0.00635298
0.00644709
0.00652282
0.00657962
0.00661709
0.00663501
0.00663337
0.00661231
0.00657218
0.00651349
0.00643694
0.00634336
0.00623376
0.00610927
0.00597114
0.00582072
0.00565944
0.00548881
0.00531034
0.00512558
0.00493608
0.00474333
0.00454881
0.00435393
0.00416003
0.00396828
0.00377977
0.0035964
0.00341996
0.00323893
0.00304198
0.00200042
0.0016611
0.00138493
0.00114997
0.000931738
0.000730823
0.000547973
0.000382123
0.000232201
9.72881e-05
-2.35084e-05
-0.000131052
-0.000226159
-0.000309599
-0.000382092
-0.0004443
-0.000496828
-0.00054022
-0.00057496
-0.000601474
-0.000620123
-0.000631207
-0.000634967
-0.000631587
-0.000621196
-0.000603867
-0.000579621
-0.000548435
-0.000510248
-0.00046496
-0.000412437
-0.000352521
-0.000285032
-0.000209774
-0.000126544
-3.5137e-05
6.46458e-05
0.000172987
0.00029005
0.000415968
0.000550838
0.000694717
0.000847615
0.00100948
0.0011802
0.00135957
0.00154734
0.00174315
0.00194657
0.00215706
0.00237399
0.00259663
0.00282416
0.00305567
0.00329013
0.00352644
0.0037634
0.00399974
0.00423412
0.00446513
0.00469134
0.00491126
0.00512341
0.00532629
0.00551844
0.0056984
0.00586482
0.0060164
0.00615193
0.00627034
0.00637066
0.00645207
0.00651392
0.00655573
0.00657721
0.00657826
0.00655898
0.00651964
0.00646072
0.00638287
0.00628693
0.00617388
0.00604484
0.00590109
0.00574401
0.00557506
0.00539577
0.00520774
0.00501256
0.00481184
0.00460717
0.00440009
0.00419209
0.0039846
0.00377889
0.00357612
0.00337838
0.0031876
0.00299129
0.00277718
0.00200412
0.00164775
0.00135803
0.00111192
0.000883629
0.000673744
0.000482994
0.000310205
0.000154191
1.3918e-05
-0.000111608
-0.00022335
-0.000322224
-0.000409091
-0.000484751
-0.000549944
-0.000605339
-0.000651541
-0.000689088
-0.000718447
-0.000740018
-0.000754131
-0.000761052
-0.000760983
-0.000754062
-0.000740367
-0.000719918
-0.000692691
-0.00065861
-0.000617561
-0.000569393
-0.000513922
-0.000450943
-0.00038023
-0.000301544
-0.000214642
-0.000119289
-1.52576e-05
9.7657e-05
0.000219633
0.000350816
0.000491309
0.000641167
0.000800386
0.000968894
0.00114654
0.00133311
0.00152828
0.00173165
0.00194271
0.00216085
0.00238538
0.00261547
0.00285021
0.00308859
0.00332948
0.00357167
0.00381385
0.00405464
0.0042926
0.00452622
0.00475396
0.00497427
0.00518555
0.00538626
0.00557485
0.00574986
0.00590989
0.00605363
0.00617988
0.00628758
0.0063758
0.00644378
0.00649095
0.00651693
0.00652153
0.00650478
0.00646689
0.00640829
0.00632959
0.0062316
0.00611529
0.0059818
0.0058324
0.00566851
0.00549162
0.00530334
0.0051053
0.00489918
0.00468666
0.00446942
0.0042491
0.00402728
0.00380551
0.00358513
0.00336742
0.00315465
0.00294895
0.0027368
0.00250495
0.00198431
0.00161134
0.00130842
0.0010514
0.000813271
0.000594588
0.000396067
0.000216418
5.43436e-05
-9.12942e-05
-0.000221593
-0.000337615
-0.000440373
-0.000530814
-0.000609818
-0.000678195
-0.000736681
-0.000785938
-0.000826552
-0.000859032
-0.000883811
-0.000901252
-0.000911641
-0.000915195
-0.000912058
-0.000902313
-0.00088598
-0.000863026
-0.000833364
-0.000796861
-0.000753347
-0.000702615
-0.00064443
-0.000578531
-0.000504646
-0.000422491
-0.00033179
-0.000232273
-0.000123689
-5.80998e-06
0.000121557
0.000258566
0.000405321
0.000561868
0.000728183
0.000904168
0.00108964
0.00128432
0.00148785
0.00169975
0.00191945
0.00214625
0.00237936
0.00261788
0.00286077
0.00310692
0.00335508
0.00360392
0.00385201
0.00409788
0.00433994
0.00457659
0.0048062
0.00502708
0.00523759
0.00543609
0.005621
0.00579079
0.00594405
0.00607946
0.00619583
0.00629211
0.00636743
0.00642112
0.00645267
0.00646182
0.00644849
0.00641285
0.00635525
0.00627627
0.00617668
0.00605744
0.00591968
0.0057647
0.00559394
0.00540895
0.00521139
0.00500296
0.00478542
0.00456056
0.00433014
0.00409591
0.00385958
0.0036228
0.00338703
0.00315366
0.00292516
0.00270388
0.00247522
0.00222497
0.00193964
0.0015505
0.00123471
0.000967067
0.000719324
0.000492029
0.000285875
9.94616e-05
-6.86193e-05
-0.000219607
-0.000354705
-0.000475074
-0.000581816
-0.000675963
-0.000758473
-0.000830225
-0.000892018
-0.000944568
-0.000988506
-0.00102438
-0.00105267
-0.00107374
-0.00108791
-0.00109542
-0.0010964
-0.00109094
-0.00107907
-0.00106073
-0.00103584
-0.00100422
-0.000965708
-0.000920052
-0.000866991
-0.00080623
-0.000737457
-0.000660351
-0.000574588
-0.000479855
-0.000375849
-0.000262294
-0.000138943
-5.58937e-06
0.000137924
0.000291696
0.000455757
0.000630057
0.000814461
0.00100874
0.00121257
0.00142551
0.00164703
0.00187644
0.00211298
0.00235575
0.00260372
0.00285576
0.00311061
0.00336692
0.0036232
0.00387793
0.00412948
0.00437617
0.00461625
0.00484799
0.00506961
0.00527937
0.00547556
0.00565654
0.00582076
0.00596675
0.00609321
0.00619895
0.00628297
0.00634446
0.00638281
0.00639765
0.00638881
0.00635637
0.0063006
0.00622205
0.00612143
0.0059997
0.00585798
0.0056976
0.00552001
0.00532684
0.00511978
0.00490064
0.00467127
0.00443355
0.00418937
0.00394059
0.00368904
0.00343651
0.00318459
0.00293479
0.00268982
0.00245222
0.00220632
0.00193685
0.00186878
0.0014639
0.00113559
0.000857598
0.000600484
0.000364772
0.000151137
-4.19292e-05
-0.000215946
-0.000372258
-0.000512169
-0.000636937
-0.000747751
-0.000845725
-0.000931894
-0.00100721
-0.00107252
-0.0011286
-0.00117612
-0.00121567
-0.00124776
-0.00127279
-0.00129108
-0.00130287
-0.00130833
-0.00130753
-0.00130049
-0.00128715
-0.0012674
-0.00124106
-0.00120793
-0.00116774
-0.00112018
-0.00106494
-0.00100165
-0.00092996
-0.00084949
-0.000759879
-0.000660774
-0.000551845
-0.00043279
-0.000303345
-0.000163294
-1.24817e-05
0.000149178
0.000321692
0.000504976
0.000698853
0.000903041
0.00111715
0.00134067
0.00157296
0.00181328
0.00206072
0.00231428
0.00257281
0.00283505
0.00309959
0.00336494
0.00362951
0.0038916
0.00414945
0.00440126
0.00464515
0.00487926
0.00510171
0.00531067
0.00550436
0.00568107
0.00583922
0.00597732
0.00609406
0.00618828
0.00625903
0.00630559
0.00632743
0.0063243
0.00629616
0.00624322
0.00616595
0.00606504
0.0059414
0.00579617
0.00563067
0.00544642
0.00524506
0.00502839
0.00479829
0.00455671
0.00430566
0.00404714
0.00378317
0.0035157
0.00324667
0.00297781
0.00271077
0.00244851
0.00219378
0.00192979
0.00164017
0.00177042
0.00135025
0.00100977
0.000721724
0.000455485
0.000211563
-9.38721e-06
-0.000208983
-0.000388858
-0.000550458
-0.000695186
-0.000824393
-0.000939357
-0.00104128
-0.00113125
-0.0012103
-0.00127934
-0.00133919
-0.00139056
-0.00143409
-0.00147029
-0.0014996
-0.00152235
-0.0015388
-0.00154911
-0.00155336
-0.00155156
-0.00154363
-0.00152945