/*--------------------------------*- C++ -*----------------------------------*\
| =========                 |                                                 |
| \\      /  F ield         | OpenFOAM: The Open Source CFD Toolbox           |
|  \\    /   O peration     | Version:  2512                                  |
|   \\  /    A nd           | Website:  www.openfoam.com                      |
|    \\/     M anipulation  |                                                 |
\*---------------------------------------------------------------------------*/
FoamFile
{
    version     2.0;
    format      ascii;
    arch        "LSB;label=32;scalar=64";
    class       volVectorField;
    location    "0.46";
    object      U;
}
// * * * * * * * * * * * * * * * * * * * * * * * * * * * * * * * * * * * * * //

dimensions      [0 1 -1 0 0 0 0];

internalField   nonuniform List<vector> 
10000
(
(3.34256e-06 -3.53858e-06 0)
(1.52311e-05 -7.63162e-06 0)
(3.19089e-05 -7.89683e-06 0)
(4.55552e-05 -6.00529e-06 0)
(5.1581e-05 -3.06989e-06 0)
(4.81898e-05 2.76159e-07 0)
(3.46246e-05 3.70202e-06 0)
(1.07625e-05 7.03039e-06 0)
(-2.31308e-05 1.01705e-05 0)
(-6.65601e-05 1.30807e-05 0)
(-0.0001189 1.5743e-05 0)
(-0.00017946 1.81542e-05 0)
(-0.000247516 2.03171e-05 0)
(-0.000322342 2.22405e-05 0)
(-0.000403226 2.39367e-05 0)
(-0.000489476 2.54186e-05 0)
(-0.000580431 2.67003e-05 0)
(-0.000675463 2.77951e-05 0)
(-0.000773976 2.87162e-05 0)
(-0.000875412 2.9476e-05 0)
(-0.000979244 3.00861e-05 0)
(-0.00108498 3.05571e-05 0)
(-0.00119214 3.08986e-05 0)
(-0.0013003 3.11184e-05 0)
(-0.00140904 3.12237e-05 0)
(-0.00151796 3.12203e-05 0)
(-0.00162668 3.11129e-05 0)
(-0.00173483 3.09057e-05 0)
(-0.00184207 3.06018e-05 0)
(-0.00194804 3.02029e-05 0)
(-0.0020524 2.97101e-05 0)
(-0.00215482 2.91243e-05 0)
(-0.00225497 2.84458e-05 0)
(-0.00235251 2.76737e-05 0)
(-0.00244711 2.68071e-05 0)
(-0.00253844 2.58458e-05 0)
(-0.00262615 2.47888e-05 0)
(-0.00270992 2.36349e-05 0)
(-0.00278941 2.23829e-05 0)
(-0.00286427 2.1032e-05 0)
(-0.00293417 1.95827e-05 0)
(-0.00299878 1.80356e-05 0)
(-0.00305776 1.63913e-05 0)
(-0.0031108 1.46513e-05 0)
(-0.00315757 1.28177e-05 0)
(-0.00319777 1.08939e-05 0)
(-0.00323112 8.88456e-06 0)
(-0.00325734 6.79472e-06 0)
(-0.00327618 4.63044e-06 0)
(-0.00328741 2.39887e-06 0)
(-0.00329083 1.08022e-07 0)
(-0.00328628 -2.23234e-06 0)
(-0.00327361 -4.6114e-06 0)
(-0.00325274 -7.01794e-06 0)
(-0.0032236 -9.43954e-06 0)
(-0.00318618 -1.18626e-05 0)
(-0.00314051 -1.42731e-05 0)
(-0.00308668 -1.66557e-05 0)
(-0.00302483 -1.89944e-05 0)
(-0.00295514 -2.12734e-05 0)
(-0.00287785 -2.3476e-05 0)
(-0.00279325 -2.55852e-05 0)
(-0.00270171 -2.75842e-05 0)
(-0.00260362 -2.94565e-05 0)
(-0.00249944 -3.11857e-05 0)
(-0.0023897 -3.27558e-05 0)
(-0.00227495 -3.41518e-05 0)
(-0.0021558 -3.53594e-05 0)
(-0.0020329 -3.63654e-05 0)
(-0.00190696 -3.71583e-05 0)
(-0.0017787 -3.77279e-05 0)
(-0.00164888 -3.80654e-05 0)
(-0.00151828 -3.81638e-05 0)
(-0.00138771 -3.80182e-05 0)
(-0.00125799 -3.76256e-05 0)
(-0.00112994 -3.69847e-05 0)
(-0.00100438 -3.60965e-05 0)
(-0.000882117 -3.49644e-05 0)
(-0.000763954 -3.35939e-05 0)
(-0.000650665 -3.19924e-05 0)
(-0.000542995 -3.0169e-05 0)
(-0.000441653 -2.81355e-05 0)
(-0.000347303 -2.59055e-05 0)
(-0.000260559 -2.34944e-05 0)
(-0.000181975 -2.09196e-05 0)
(-0.000112039 -1.8201e-05 0)
(-5.1164e-05 -1.53609e-05 0)
(3.21234e-07 -1.24248e-05 0)
(4.21876e-05 -9.42106e-06 0)
(7.43108e-05 -6.3792e-06 0)
(9.67012e-05 -3.34672e-06 0)
(0.00010953 -3.71253e-07 0)
(0.000113161 2.47876e-06 0)
(0.000108211 5.10663e-06 0)
(9.56446e-05 7.36775e-06 0)
(7.69047e-05 9.03965e-06 0)
(5.40875e-05 9.77986e-06 0)
(3.02534e-05 9.04845e-06 0)
(1.03196e-05 6.09873e-06 0)
(1.05048e-06 1.05589e-06 0)
(7.40633e-06 -1.51879e-05 0)
(2.82263e-05 -2.84531e-05 0)
(5.25755e-05 -2.67695e-05 0)
(6.66281e-05 -1.58242e-05 0)
(6.19416e-05 3.3483e-07 0)
(3.41335e-05 1.90899e-05 0)
(-1.90647e-05 3.88138e-05 0)
(-9.84668e-05 5.84988e-05 0)
(-0.000203861 7.75289e-05 0)
(-0.000334362 9.55377e-05 0)
(-0.000488648 0.000112313 0)
(-0.000665134 0.000127745 0)
(-0.000862078 0.000141786 0)
(-0.00107767 0.000154435 0)
(-0.00131008 0.000165719 0)
(-0.0015575 0.000175682 0)
(-0.00181816 0.000184382 0)
(-0.00209038 0.00019188 0)
(-0.00237251 0.000198241 0)
(-0.002663 0.000203528 0)
(-0.00296039 0.000207805 0)
(-0.00326326 0.000211129 0)
(-0.00357028 0.000213552 0)
(-0.0038802 0.000215123 0)
(-0.00419181 0.000215884 0)
(-0.00450394 0.000215872 0)
(-0.00481549 0.000215115 0)
(-0.00512539 0.00021364 0)
(-0.0054326 0.000211466 0)
(-0.00573609 0.000208607 0)
(-0.00603488 0.000205075 0)
(-0.00632797 0.000200875 0)
(-0.0066144 0.000196012 0)
(-0.00689318 0.000190485 0)
(-0.00716335 0.000184295 0)
(-0.00742395 0.000177439 0)
(-0.00767401 0.000169917 0)
(-0.00791256 0.000161726 0)
(-0.00813865 0.000152865 0)
(-0.0083513 0.000143335 0)
(-0.00854958 0.000133142 0)
(-0.00873254 0.000122293 0)
(-0.00889925 0.000110798 0)
(-0.00904882 9.86722e-05 0)
(-0.00918038 8.59372e-05 0)
(-0.00929308 7.26187e-05 0)
(-0.00938615 5.87492e-05 0)
(-0.00945883 4.43663e-05 0)
(-0.00951045 2.95141e-05 0)
(-0.0095404 1.4244e-05 0)
(-0.00954815 -1.38614e-06 0)
(-0.00953327 -1.73119e-05 0)
(-0.00949541 -3.34614e-05 0)
(-0.00943432 -4.97577e-05 0)
(-0.0093499 -6.61176e-05 0)
(-0.00924213 -8.24515e-05 0)
(-0.00911115 -9.86649e-05 0)
(-0.00895722 -0.000114659 0)
(-0.00878075 -0.000130332 0)
(-0.00858228 -0.000145578 0)
(-0.00836253 -0.00016029 0)
(-0.00812233 -0.000174359 0)
(-0.00786269 -0.000187677 0)
(-0.00758476 -0.000200139 0)
(-0.00728983 -0.000211638 0)
(-0.00697934 -0.000222075 0)
(-0.00665487 -0.000231354 0)
(-0.00631811 -0.000239386 0)
(-0.00597089 -0.000246087 0)
(-0.00561512 -0.000251385 0)
(-0.00525285 -0.000255215 0)
(-0.00488615 -0.000257522 0)
(-0.00451722 -0.000258266 0)
(-0.00414825 -0.000257414 0)
(-0.0037815 -0.00025495 0)
(-0.00341924 -0.000250869 0)
(-0.00306372 -0.000245181 0)
(-0.00271718 -0.00023791 0)
(-0.00238179 -0.000229091 0)
(-0.0020597 -0.000218779 0)
(-0.00175293 -0.000207037 0)
(-0.00146341 -0.000193948 0)
(-0.00119296 -0.000179605 0)
(-0.000943226 -0.000164117 0)
(-0.000715702 -0.000147611 0)
(-0.000511679 -0.000130227 0)
(-0.000332233 -0.000112126 0)
(-0.000178187 -9.34889e-05 0)
(-5.00752e-05 -7.45248e-05 0)
(5.1876e-05 -5.5477e-05 0)
(0.000127833 -3.66329e-05 0)
(0.000178427 -1.83465e-05 0)
(0.000204816 -1.06309e-06 0)
(0.000208836 1.46377e-05 0)
(0.000193173 2.79783e-05 0)
(0.000161581 3.78974e-05 0)
(0.000119083 4.29554e-05 0)
(7.22173e-05 4.12222e-05 0)
(3.03646e-05 3.04249e-05 0)
(6.05694e-06 1.02946e-05 0)
(7.91464e-06 -3.19424e-05 0)
(2.69225e-05 -5.2728e-05 0)
(4.29036e-05 -4.27047e-05 0)
(4.01789e-05 -1.2612e-05 0)
(8.74732e-06 2.97605e-05 0)
(-5.70889e-05 7.89129e-05 0)
(-0.000160554 0.000131068 0)
(-0.00030301 0.000183691 0)
(-0.000484412 0.000235111 0)
(-0.000703725 0.000284239 0)
(-0.000959229 0.000330396 0)
(-0.00124875 0.000373177 0)
(-0.00156983 0.000412367 0)
(-0.00191984 0.000447886 0)
(-0.00229609 0.000479744 0)
(-0.00269587 0.000508014 0)
(-0.00311651 0.000532809 0)
(-0.0035554 0.000554265 0)
(-0.00401004 0.000572535 0)
(-0.00447798 0.000587773 0)
(-0.00495691 0.000600132 0)
(-0.00544462 0.000609759 0)
(-0.00593898 0.000616793 0)
(-0.00643795 0.000621357 0)
(-0.0069396 0.000623564 0)
(-0.00744206 0.00062351 0)
(-0.00794353 0.000621278 0)
(-0.00844226 0.000616938 0)
(-0.00893655 0.000610543 0)
(-0.00942475 0.000602139 0)
(-0.00990523 0.000591755 0)
(-0.0103764 0.000579415 0)
(-0.0108366 0.000565132 0)
(-0.0112843 0.000548913 0)
(-0.011718 0.000530763 0)
(-0.012136 0.000510682 0)
(-0.0125369 0.00048867 0)
(-0.012919 0.000464731 0)
(-0.0132808 0.000438869 0)
(-0.0136209 0.000411096 0)
(-0.0139376 0.000381429 0)
(-0.0142295 0.000349897 0)
(-0.0144951 0.000316539 0)
(-0.014733 0.000281403 0)
(-0.0149419 0.000244557 0)
(-0.0151204 0.000206078 0)
(-0.0152674 0.000166065 0)
(-0.0153816 0.000124629 0)
(-0.0154621 8.19008e-05 0)
(-0.0155078 3.80292e-05 0)
(-0.0155181 -6.81755e-06 0)
(-0.0154922 -5.24543e-05 0)
(-0.0154296 -9.86777e-05 0)
(-0.0153301 -0.000145267 0)
(-0.0151933 -0.000191985 0)
(-0.0150195 -0.00023858 0)
(-0.0148088 -0.000284786 0)
(-0.0145617 -0.000330325 0)
(-0.0142788 -0.00037491 0)
(-0.0139611 -0.000418247 0)
(-0.0136097 -0.000460035 0)
(-0.0132259 -0.000499974 0)
(-0.0128114 -0.000537763 0)
(-0.012368 -0.000573105 0)
(-0.0118976 -0.00060571 0)
(-0.0114027 -0.000635302 0)
(-0.0108857 -0.000661614 0)
(-0.0103492 -0.000684399 0)
(-0.00979614 -0.000703433 0)
(-0.00922952 -0.00071851 0)
(-0.00865251 -0.000729455 0)
(-0.0080684 -0.00073612 0)
(-0.00748058 -0.000738389 0)
(-0.00689252 -0.000736181 0)
(-0.00630772 -0.00072945 0)
(-0.00572972 -0.000718188 0)
(-0.00516203 -0.000702424 0)
(-0.00460814 -0.000682228 0)
(-0.00407146 -0.000657708 0)
(-0.00355528 -0.000629014 0)
(-0.00306276 -0.000596338 0)
(-0.00259691 -0.000559912 0)
(-0.00216052 -0.000520009 0)
(-0.00175613 -0.000476949 0)
(-0.00138603 -0.000431094 0)
(-0.00105219 -0.000382857 0)
(-0.000756215 -0.000332707 0)
(-0.000499327 -0.000281174 0)
(-0.000282279 -0.000228867 0)
(-0.000105316 -0.000176495 0)
(3.19192e-05 -0.000124877 0)
(0.000130482 -7.5009e-05 0)
(0.000192238 -2.8107e-05 0)
(0.000220017 1.43147e-05 0)
(0.000217808 5.03344e-05 0)
(0.000190973 7.75078e-05 0)
(0.00014637 9.27588e-05 0)
(9.24795e-05 9.23529e-05 0)
(4.1165e-05 7.22492e-05 0)
(8.97421e-06 3.01332e-05 0)
(6.13508e-06 -4.56788e-05 0)
(1.6226e-05 -6.69188e-05 0)
(1.30833e-05 -4.0023e-05 0)
(-1.83538e-05 1.87193e-05 0)
(-8.81559e-05 9.77362e-05 0)
(-0.000202475 0.000188496 0)
(-0.000364914 0.000284843 0)
(-0.000577069 0.000382447 0)
(-0.000838964 0.000478308 0)
(-0.00114945 0.000570389 0)
(-0.00150654 0.000657342 0)
(-0.00190763 0.000738317 0)
(-0.00234973 0.000812822 0)
(-0.00282961 0.000880618 0)
(-0.00334388 0.000941648 0)
(-0.00388911 0.000995985 0)
(-0.0044619 0.00104378 0)
(-0.00505886 0.00108526 0)
(-0.00567672 0.00112066 0)
(-0.0063123 0.00115024 0)
(-0.00696254 0.00117427 0)
(-0.00762447 0.00119301 0)
(-0.00829526 0.0012067 0)
(-0.00897219 0.00121556 0)
(-0.00965263 0.00121981 0)
(-0.010334 0.00121961 0)
(-0.011014 0.00121512 0)
(-0.0116901 0.00120647 0)
(-0.01236 0.00119377 0)
(-0.0130215 0.00117709 0)
(-0.0136723 0.00115651 0)
(-0.0143103 0.00113207 0)
(-0.0149332 0.00110379 0)
(-0.0155389 0.00107171 0)
(-0.0161254 0.00103583 0)
(-0.0166904 0.00099617 0)
(-0.0172318 0.000952733 0)
(-0.0177476 0.000905535 0)
(-0.0182357 0.000854594 0)
(-0.018694 0.000799943 0)
(-0.0191205 0.000741626 0)
(-0.0195132 0.000679706 0)
(-0.0198701 0.000614267 0)
(-0.0201895 0.000545417 0)
(-0.0204694 0.000473288 0)
(-0.0207082 0.000398044 0)
(-0.0209042 0.000319877 0)
(-0.0210559 0.000239012 0)
(-0.0211621 0.000155709 0)
(-0.0212215 7.02578e-05 0)
(-0.021233 -1.70127e-05 0)
(-0.0211958 -0.000105741 0)
(-0.0211094 -0.000195534 0)
(-0.0209733 -0.000285963 0)
(-0.0207873 -0.000376573 0)
(-0.0205515 -0.000466877 0)
(-0.0202664 -0.000556367 0)
(-0.0199324 -0.00064451 0)
(-0.0195507 -0.000730757 0)
(-0.0191223 -0.000814546 0)
(-0.0186489 -0.000895306 0)
(-0.0181323 -0.000972462 0)
(-0.0175746 -0.00104544 0)
(-0.0169783 -0.00111369 0)
(-0.0163461 -0.00117665 0)
(-0.015681 -0.00123379 0)
(-0.0149863 -0.00128462 0)
(-0.0142657 -0.00132867 0)
(-0.0135228 -0.00136551 0)
(-0.0127616 -0.00139475 0)
(-0.0119865 -0.00141607 0)
(-0.0112016 -0.00142919 0)
(-0.0104115 -0.00143389 0)
(-0.00962074 -0.00143002 0)
(-0.00883396 -0.0014175 0)
(-0.00805581 -0.00139631 0)
(-0.00729092 -0.00136652 0)
(-0.00654387 -0.00132826 0)
(-0.00581914 -0.00128175 0)
(-0.00512105 -0.00122728 0)
(-0.00445377 -0.00116522 0)
(-0.00382122 -0.00109604 0)
(-0.00322705 -0.00102025 0)
(-0.00267459 -0.000938486 0)
(-0.0021668 -0.000851458 0)
(-0.00170624 -0.000759971 0)
(-0.00129496 -0.000664941 0)
(-0.000934516 -0.000567403 0)
(-0.000625831 -0.000468539 0)
(-0.000369162 -0.000369708 0)
(-0.000163993 -0.000272484 0)
(-8.92459e-06 -0.000178731 0)
(9.84442e-05 -9.06699e-05 0)
(0.000161667 -1.09954e-05 0)
(0.000185629 5.69997e-05 0)
(0.000176733 0.00010929 0)
(0.000142963 0.000141006 0)
(9.3998e-05 0.000146443 0)
(4.32507e-05 0.000119366 0)
(9.7309e-06 5.39156e-05 0)
(3.27732e-06 -5.20563e-05 0)
(1.36935e-07 -6.24344e-05 0)
(-2.95406e-05 -8.48797e-06 0)
(-9.82265e-05 8.86461e-05 0)
(-0.000214989 0.000213898 0)
(-0.000385808 0.000355874 0)
(-0.000614186 0.000506096 0)
(-0.000901633 0.000658395 0)
(-0.00124807 0.000808354 0)
(-0.00165218 0.000952866 0)
(-0.0021117 0.0010898 0)
(-0.00262372 0.00121776 0)
(-0.0031848 0.00133588 0)
(-0.00379122 0.00144369 0)
(-0.00443905 0.00154103 0)
(-0.00512427 0.00162791 0)
(-0.00584284 0.00170452 0)
(-0.00659075 0.00177113 0)
(-0.00736408 0.00182808 0)
(-0.00815898 0.00187574 0)
(-0.00897173 0.00191449 0)
(-0.00979872 0.00194471 0)
(-0.0106365 0.00196677 0)
(-0.0114816 0.00198099 0)
(-0.012331 0.00198769 0)
(-0.0131813 0.00198714 0)
(-0.0140296 0.00197957 0)
(-0.0148729 0.0019652 0)
(-0.0157082 0.00194418 0)
(-0.0165329 0.00191664 0)
(-0.017344 0.0018827 0)
(-0.0181387 0.00184243 0)
(-0.0189145 0.00179588 0)
(-0.0196686 0.00174311 0)
(-0.0203984 0.00168414 0)
(-0.0211011 0.00161901 0)
(-0.0217742 0.00154772 0)
(-0.022415 0.00147033 0)
(-0.023021 0.00138687 0)
(-0.0235897 0.00129741 0)
(-0.0241185 0.00120203 0)
(-0.024605 0.00110085 0)
(-0.0250468 0.000994014 0)
(-0.0254416 0.000881711 0)
(-0.0257873 0.000764166 0)
(-0.0260816 0.000641651 0)
(-0.0263228 0.000514488 0)
(-0.0265089 0.000383048 0)
(-0.0266384 0.000247755 0)
(-0.0267098 0.000109089 0)
(-0.0267219 -3.24209e-05 0)
(-0.0266738 -0.000176188 0)
(-0.0265646 -0.000321575 0)
(-0.026394 -0.000467895 0)
(-0.0261617 -0.000614412 0)
(-0.025868 -0.000760349 0)
(-0.0255134 -0.00090489 0)
(-0.0250986 -0.00104718 0)
(-0.0246249 -0.00118636 0)
(-0.0240937 -0.00132151 0)
(-0.0235071 -0.00145173 0)
(-0.0228672 -0.00157612 0)
(-0.0221768 -0.00169375 0)
(-0.0214388 -0.00180375 0)
(-0.0206566 -0.00190523 0)
(-0.0198338 -0.00199737 0)
(-0.0189746 -0.00207937 0)
(-0.0180832 -0.00215049 0)
(-0.0171643 -0.00221006 0)
(-0.0162228 -0.00225747 0)
(-0.0152637 -0.0022922 0)
(-0.0142923 -0.00231381 0)
(-0.013314 -0.00232197 0)
(-0.0123345 -0.00231643 0)
(-0.0113594 -0.00229707 0)
(-0.0103942 -0.00226388 0)
(-0.00944466 -0.00221696 0)
(-0.00851626 -0.00215653 0)
(-0.00761445 -0.00208295 0)
(-0.00674448 -0.0019967 0)
(-0.00591139 -0.00189836 0)
(-0.00511991 -0.00178869 0)
(-0.00437447 -0.00166854 0)
(-0.00367907 -0.00153893 0)
(-0.00303729 -0.001401 0)
(-0.00245217 -0.00125607 0)
(-0.0019262 -0.00110561 0)
(-0.00146119 -0.000951285 0)
(-0.00105826 -0.000794996 0)
(-0.000717686 -0.000638899 0)
(-0.000438861 -0.000485474 0)
(-0.000220152 -0.000337603 0)
(-5.87934e-05 -0.000198663 0)
(4.92439e-05 -7.26548e-05 0)
(0.000109412 3.56644e-05 0)
(0.000128742 0.000120623 0)
(0.000115894 0.00017551 0)
(8.12825e-05 0.000192549 0)
(3.90944e-05 0.000162996 0)
(9.11638e-06 7.69638e-05 0)
(-4.63469e-08 -4.90016e-05 0)
(-1.88885e-05 -3.44862e-05 0)
(-7.98975e-05 5.82185e-05 0)
(-0.000191704 0.000204184 0)
(-0.000361597 0.000385331 0)
(-0.000594891 0.000587713 0)
(-0.000894598 0.000800704 0)
(-0.00126185 0.00101638 0)
(-0.00169625 0.00122891 0)
(-0.00219623 0.00143408 0)
(-0.00275923 0.00162894 0)
(-0.00338198 0.00181147 0)
(-0.00406069 0.00198038 0)
(-0.00479122 0.00213492 0)
(-0.00556917 0.00227475 0)
(-0.00639003 0.00239983 0)
(-0.00724923 0.00251032 0)
(-0.00814223 0.00260655 0)
(-0.00906452 0.00268893 0)
(-0.0100117 0.00275793 0)
(-0.0109795 0.00281405 0)
(-0.0119636 0.0028578 0)
(-0.0129602 0.00288966 0)
(-0.0139651 0.00291009 0)
(-0.0149747 0.0029195 0)
(-0.0159851 0.00291827 0)
(-0.0169928 0.00290673 0)
(-0.0179943 0.00288516 0)
(-0.0189862 0.0028538 0)
(-0.019965 0.00281283 0)
(-0.0209274 0.00276242 0)
(-0.0218702 0.00270268 0)
(-0.0227902 0.00263371 0)
(-0.0236841 0.00255556 0)
(-0.0245488 0.00246831 0)
(-0.0253812 0.002372 0)
(-0.0261781 0.00226668 0)
(-0.0269364 0.00215242 0)
(-0.0276532 0.00202931 0)
(-0.0283255 0.00189744 0)
(-0.0289502 0.00175696 0)
(-0.0295246 0.00160805 0)
(-0.0300458 0.00145095 0)
(-0.0305113 0.00128594 0)
(-0.0309183 0.00111336 0)
(-0.0312646 0.00093362 0)
(-0.0315479 0.000747207 0)
(-0.031766 0.000554669 0)
(-0.0319171 0.00035663 0)
(-0.0319996 0.000153795 0)
(-0.0320121 -5.3059e-05 0)
(-0.0319535 -0.000263078 0)
(-0.0318231 -0.000475333 0)
(-0.0316202 -0.000688826 0)
(-0.0313448 -0.000902492 0)
(-0.0309971 -0.00111521 0)
(-0.0305777 -0.00132579 0)
(-0.0300876 -0.00153302 0)
(-0.0295283 -0.00173563 0)
(-0.0289015 -0.00193233 0)
(-0.0282096 -0.00212181 0)
(-0.0274551 -0.00230278 0)
(-0.0266412 -0.00247392 0)
(-0.0257714 -0.00263395 0)
(-0.0248496 -0.00278164 0)
(-0.0238801 -0.00291578 0)
(-0.0228677 -0.00303524 0)
(-0.0218173 -0.00313897 0)
(-0.0207343 -0.003226 0)
(-0.0196244 -0.00329547 0)
(-0.0184935 -0.00334662 0)
(-0.0173477 -0.00337885 0)
(-0.0161933 -0.00339166 0)
(-0.0150367 -0.00338473 0)
(-0.0138846 -0.00335788 0)
(-0.0127433 -0.00331109 0)
(-0.0116194 -0.00324453 0)
(-0.0105193 -0.00315852 0)
(-0.00944941 -0.00305357 0)
(-0.00841566 -0.00293039 0)
(-0.0074239 -0.00278984 0)
(-0.00647964 -0.002633 0)
(-0.00558795 -0.00246113 0)
(-0.00475348 -0.0022757 0)
(-0.00398034 -0.00207839 0)
(-0.00327205 -0.00187109 0)
(-0.00263147 -0.00165594 0)
(-0.00206069 -0.00143535 0)
(-0.00156101 -0.00121205 0)
(-0.0011328 -0.000989104 0)
(-0.000775413 -0.00077001 0)
(-0.000487107 -0.000558778 0)
(-0.000264916 -0.000360037 0)
(-0.000104542 -0.000179163 0)
(-2.22942e-07 -2.24275e-05 0)
(5.53991e-05 0.00010283 0)
(7.13274e-05 0.000188047 0)
(5.83519e-05 0.000223336 0)
(3.075e-05 0.000197392 0)
(7.69647e-06 9.65474e-05 0)
(-3.5285e-06 -3.55565e-05 0)
(-3.93682e-05 1.97738e-05 0)
(-0.000134604 0.000164235 0)
(-0.000293353 0.000370174 0)
(-0.000520615 0.000617094 0)
(-0.000820664 0.000888889 0)
(-0.0011957 0.00117305 0)
(-0.00164622 0.00146004 0)
(-0.00217135 0.00174272 0)
(-0.00276909 0.00201581 0)
(-0.00343653 0.00227551 0)
(-0.00417005 0.00251918 0)
(-0.00496549 0.00274506 0)
(-0.0058183 0.0029521 0)
(-0.00672369 0.00313975 0)
(-0.00767671 0.00330788 0)
(-0.00867234 0.00345661 0)
(-0.00970555 0.0035863 0)
(-0.0107714 0.00369743 0)
(-0.0118649 0.00379056 0)
(-0.0129813 0.0038663 0)
(-0.0141159 0.00392528 0)
(-0.0152641 0.0039681 0)
(-0.0164215 0.00399534 0)
(-0.0175837 0.00400754 0)
(-0.0187466 0.00400517 0)
(-0.0199059 0.00398867 0)
(-0.0210578 0.0039584 0)
(-0.0221983 0.00391468 0)
(-0.0233234 0.00385775 0)
(-0.0244294 0.00378783 0)
(-0.0255125 0.00370509 0)
(-0.0265691 0.00360964 0)
(-0.0275954 0.00350161 0)
(-0.0285879 0.00338108 0)
(-0.0295429 0.00324814 0)
(-0.0304569 0.00310287 0)
(-0.0313263 0.00294538 0)
(-0.0321478 0.0027758 0)
(-0.0329178 0.00259429 0)
(-0.0336331 0.00240107 0)
(-0.0342905 0.00219641 0)
(-0.0348867 0.00198064 0)
(-0.0354188 0.00175417 0)
(-0.0358839 0.00151747 0)
(-0.0362792 0.00127114 0)
(-0.0366022 0.00101582 0)
(-0.0368507 0.000752291 0)
(-0.0370224 0.000481405 0)
(-0.0371157 0.000204128 0)
(-0.037129 -7.84774e-05 0)
(-0.037061 -0.000365246 0)
(-0.0369109 -0.000654915 0)
(-0.0366782 -0.000946131 0)
(-0.0363628 -0.00123745 0)
(-0.0359649 -0.00152736 0)
(-0.0354854 -0.00181425 0)
(-0.0349253 -0.00209648 0)
(-0.0342863 -0.00237235 0)
(-0.0335704 -0.00264013 0)
(-0.0327803 -0.00289805 0)
(-0.031919 -0.00314436 0)
(-0.0309899 -0.00337732 0)
(-0.0299971 -0.0035952 0)
(-0.0289449 -0.00379634 0)
(-0.0278382 -0.00397913 0)
(-0.0266824 -0.00414205 0)
(-0.025483 -0.0042837 0)
(-0.0242462 -0.00440278 0)
(-0.0229782 -0.00449813 0)
(-0.0216857 -0.00456876 0)
(-0.0203756 -0.00461384 0)
(-0.0190551 -0.00463273 0)
(-0.0177312 -0.00462499 0)
(-0.0164113 -0.00459038 0)
(-0.0151029 -0.00452889 0)
(-0.0138131 -0.00444073 0)
(-0.0125492 -0.00432638 0)
(-0.0113182 -0.0041865 0)
(-0.0101271 -0.00402207 0)
(-0.00898223 -0.00383425 0)
(-0.00788984 -0.00362452 0)
(-0.00685564 -0.00339459 0)
(-0.00588485 -0.00314644 0)
(-0.00498209 -0.00288234 0)
(-0.00415132 -0.00260486 0)
(-0.00339577 -0.0023169 0)
(-0.00271783 -0.00202168 0)
(-0.00211901 -0.00172284 0)
(-0.0015998 -0.00142446 0)
(-0.00115963 -0.00113113 0)
(-0.000796749 -0.000848073 0)
(-0.000508131 -0.000581211 0)
(-0.000289382 -0.000337337 0)
(-0.000134636 -0.000124253 0)
(-3.64445e-05 4.90466e-05 0)
(1.4278e-05 0.000172175 0)
(2.83885e-05 0.000233204 0)
(1.97072e-05 0.000218419 0)
(5.8244e-06 0.000110946 0)
(-7.01433e-06 -1.13131e-05 0)
(-6.04228e-05 0.000101922 0)
(-0.000191465 0.000312107 0)
(-0.00039946 0.000589784 0)
(-0.000686826 0.000912639 0)
(-0.00105653 0.00126283 0)
(-0.00150972 0.00162627 0)
(-0.00204603 0.00199205 0)
(-0.00266394 0.00235181 0)
(-0.00336092 0.0026993 0)
(-0.0041336 0.00302994 0)
(-0.00497795 0.00334047 0)
(-0.00588942 0.00362867 0)
(-0.00686309 0.00389316 0)
(-0.00789377 0.0041332 0)
(-0.00897612 0.00434851 0)
(-0.0101047 0.00453919 0)
(-0.0112741 0.0047056 0)
(-0.0124789 0.00484827 0)
(-0.0137137 0.00496785 0)
(-0.0149732 0.00506506 0)
(-0.0162524 0.00514062 0)
(-0.0175462 0.00519528 0)
(-0.0188497 0.00522973 0)
(-0.0201581 0.00524461 0)
(-0.0214668 0.00524053 0)
(-0.022771 0.005218 0)
(-0.0240664 0.00517749 0)
(-0.0253486 0.00511937 0)
(-0.0266132 0.00504398 0)
(-0.027856 0.00495159 0)
(-0.0290728 0.00484241 0)
(-0.0302594 0.00471662 0)
(-0.0314117 0.00457436 0)
(-0.0325257 0.00441578 0)
(-0.0335974 0.00424099 0)
(-0.0346227 0.00405012 0)
(-0.0355978 0.00384334 0)
(-0.0365188 0.00362084 0)
(-0.0373819 0.00338285 0)
(-0.0381835 0.00312967 0)
(-0.0389198 0.00286166 0)
(-0.0395875 0.0025793 0)
(-0.0401832 0.00228311 0)
(-0.0407037 0.00197376 0)
(-0.041146 0.00165199 0)
(-0.0415073 0.00131871 0)
(-0.0417851 0.000974891 0)
(-0.0419771 0.000621678 0)
(-0.0420813 0.000260324 0)
(-0.042096 -0.000107785 0)
(-0.0420201 -0.000481139 0)
(-0.0418524 -0.000858102 0)
(-0.0415925 -0.00123692 0)
(-0.0412403 -0.00161574 0)
(-0.0407962 -0.00199259 0)
(-0.0402609 -0.00236542 0)
(-0.0396358 -0.00273211 0)
(-0.0389226 -0.00309047 0)
(-0.0381238 -0.00343827 0)
(-0.0372421 -0.00377327 0)
(-0.0362809 -0.00409321 0)
(-0.035244 -0.00439585 0)
(-0.0341358 -0.00467898 0)
(-0.0329613 -0.00494048 0)
(-0.0317258 -0.00517829 0)
(-0.030435 -0.00539047 0)
(-0.0290953 -0.00557521 0)
(-0.0277132 -0.00573086 0)
(-0.0262958 -0.00585594 0)
(-0.0248504 -0.00594918 0)
(-0.0233845 -0.00600952 0)
(-0.021906 -0.00603613 0)
(-0.0204227 -0.00602846 0)
(-0.0189428 -0.00598622 0)
(-0.0174743 -0.00590938 0)
(-0.0160253 -0.00579824 0)
(-0.0146037 -0.00565338 0)
(-0.0132172 -0.00547571 0)
(-0.0118735 -0.00526643 0)
(-0.0105797 -0.00502711 0)
(-0.00934254 -0.0047596 0)
(-0.00816842 -0.00446614 0)
(-0.00706307 -0.00414927 0)
(-0.00603161 -0.00381193 0)
(-0.00507844 -0.00345742 0)
(-0.00420717 -0.00308944 0)
(-0.00342051 -0.00271212 0)
(-0.00272021 -0.00233008 0)
(-0.00210698 -0.00194848 0)
(-0.00158036 -0.00157305 0)
(-0.00113872 -0.00121026 0)
(-0.00077908 -0.000867389 0)
(-0.000497109 -0.000552637 0)
(-0.000287 -0.00027533 0)
(-0.000141404 -4.60804e-05 0)
(-5.13682e-05 0.000122985 0)
(-6.21703e-06 0.000218032 0)
(7.01272e-06 0.000223216 0)
(3.72101e-06 0.000119101 0)
(-1.0431e-05 2.38059e-05 0)
(-8.15384e-05 0.000212659 0)
(-0.000249078 0.000503199 0)
(-0.000507529 0.00086489 0)
(-0.000856587 0.00127415 0)
(-0.00129774 0.00171182 0)
(-0.00183091 0.00216256 0)
(-0.00245471 0.00261428 0)
(-0.00316681 0.00305764 0)
(-0.00396404 0.0034855 0)
(-0.00484249 0.00389258 0)
(-0.00579766 0.00427504 0)
(-0.00682457 0.00463024 0)
(-0.0079179 0.00495649 0)
(-0.0090721 0.00525282 0)
(-0.0102814 0.00551885 0)
(-0.0115401 0.00575462 0)
(-0.0128422 0.00596049 0)
(-0.0141821 0.00613703 0)
(-0.0155539 0.00628497 0)
(-0.016952 0.00640512 0)
(-0.0183709 0.00649832 0)
(-0.0198051 0.00656543 0)
(-0.0212492 0.00660726 0)
(-0.0226981 0.00662457 0)
(-0.0241467 0.00661806 0)
(-0.02559 0.00658836 0)
(-0.027023 0.00653601 0)
(-0.028441 0.00646149 0)
(-0.0298392 0.00636518 0)
(-0.0312129 0.00624742 0)
(-0.0325575 0.00610849 0)
(-0.0338686 0.00594861 0)
(-0.0351414 0.00576797 0)
(-0.0363717 0.00556676 0)
(-0.037555 0.00534515 0)
(-0.0386869 0.00510333 0)
(-0.0397632 0.00484151 0)
(-0.0407796 0.00455996 0)
(-0.0417319 0.00425899 0)
(-0.0426162 0.003939 0)
(-0.0434284 0.00360048 0)
(-0.0441649 0.00324403 0)
(-0.0448219 0.00287035 0)
(-0.045396 0.00248027 0)
(-0.045884 0.00207476 0)
(-0.0462827 0.00165495 0)
(-0.0465895 0.0012221 0)
(-0.046802 0.000777632 0)
(-0.0469179 0.00032313 0)
(-0.0469354 -0.000139669 0)
(-0.0468532 -0.000608873 0)
(-0.0466703 -0.00108244 0)
(-0.0463861 -0.00155818 0)
(-0.0460005 -0.00203377 0)
(-0.0455139 -0.00250678 0)
(-0.0449272 -0.00297465 0)
(-0.0442418 -0.00343474 0)
(-0.0434598 -0.00388434 0)
(-0.0425836 -0.0043207 0)
(-0.0416163 -0.00474101 0)
(-0.0405615 -0.00514248 0)
(-0.0394235 -0.00552234 0)
(-0.0382069 -0.00587787 0)
(-0.0369171 -0.00620642 0)
(-0.0355599 -0.00650546 0)
(-0.0341415 -0.00677257 0)
(-0.0326688 -0.00700553 0)
(-0.0311488 -0.00720228 0)
(-0.0295892 -0.007361 0)
(-0.027998 -0.00748011 0)
(-0.0263832 -0.0075583 0)
(-0.0247534 -0.00759456 0)
(-0.0231171 -0.00758819 0)
(-0.0214831 -0.00753882 0)
(-0.0198602 -0.00744645 0)
(-0.0182571 -0.00731142 0)
(-0.0166824 -0.00713446 0)
(-0.0151445 -0.00691671 0)
(-0.0136517 -0.00665966 0)
(-0.0122118 -0.00636526 0)
(-0.0108321 -0.00603581 0)
(-0.0095196 -0.00567409 0)
(-0.00828056 -0.00528327 0)
(-0.0071206 -0.00486699 0)
(-0.00604456 -0.00442932 0)
(-0.00505646 -0.00397484 0)
(-0.00415934 -0.00350864 0)
(-0.00335527 -0.00303638 0)
(-0.0026452 -0.00256431 0)
(-0.00202891 -0.00209938 0)
(-0.00150493 -0.00164934 0)
(-0.00107048 -0.0012228 0)
(-0.000721387 -0.000829395 0)
(-0.000452051 -0.00047993 0)
(-0.000255372 -0.000186576 0)
(-0.0001227 3.69069e-05 0)
(-4.37352e-05 0.000174962 0)
(-6.62286e-06 0.000209929 0)
(1.52056e-06 0.000120412 0)
(-1.37459e-05 6.96926e-05 0)
(-0.000102422 0.000352131 0)
(-0.000306563 0.000738056 0)
(-0.000615902 0.00119642 0)
(-0.00102739 0.00170283 0)
(-0.00154093 0.0022372 0)
(-0.0021551 0.00278324 0)
(-0.00286737 0.00332795 0)
(-0.0036745 0.00386116 0)
(-0.00457256 0.00437501 0)
(-0.00555702 0.00486358 0)
(-0.00662285 0.00532257 0)
(-0.0077646 0.00574894 0)
(-0.00897653 0.00614072 0)
(-0.0102527 0.00649674 0)
(-0.011587 0.00681652 0)
(-0.0129733 0.00710004 0)
(-0.0144053 0.00734764 0)
(-0.015877 0.00755997 0)
(-0.0173822 0.0077378 0)
(-0.0189149 0.00788205 0)
(-0.0204691 0.00799367 0)
(-0.0220391 0.00807361 0)
(-0.0236192 0.0081228 0)
(-0.0252038 0.00814212 0)
(-0.0267874 0.00813238 0)
(-0.0283646 0.00809429 0)
(-0.0299302 0.0080285 0)
(-0.0314789 0.00793555 0)
(-0.0330056 0.00781592 0)
(-0.0345053 0.00766999 0)
(-0.0359729 0.0074981 0)
(-0.0374036 0.00730054 0)
(-0.0387925 0.00707755 0)
(-0.0401346 0.00682936 0)
(-0.0414254 0.00655619 0)
(-0.04266 0.00625831 0)
(-0.0438337 0.00593599 0)
(-0.0449422 0.00558957 0)
(-0.0459807 0.00521948 0)
(-0.0469451 0.00482622 0)
(-0.047831 0.00441041 0)
(-0.0486343 0.00397279 0)
(-0.0493512 0.00351425 0)
(-0.0499779 0.00303583 0)
(-0.0505109 0.00253872 0)
(-0.050947 0.00202432 0)
(-0.0512831 0.00149416 0)
(-0.0515167 0.000950004 0)
(-0.0516455 0.000393775 0)
(-0.0516675 -0.000172405 0)
(-0.0515813 -0.000746232 0)
(-0.0513857 -0.00132522 0)
(-0.0510802 -0.00190672 0)
(-0.0506647 -0.00248792 0)
(-0.0501396 -0.00306585 0)
(-0.0495057 -0.00363744 0)
(-0.0487648 -0.00419949 0)
(-0.0479188 -0.00474873 0)
(-0.0469705 -0.00528181 0)
(-0.0459232 -0.00579536 0)
(-0.0447806 -0.00628602 0)
(-0.0435474 -0.00675044 0)
(-0.0422285 -0.00718533 0)
(-0.0408297 -0.0075875 0)
(-0.0393571 -0.0079539 0)
(-0.0378174 -0.0082816 0)
(-0.0362179 -0.00856793 0)
(-0.0345662 -0.0088104 0)
(-0.0328704 -0.00900681 0)
(-0.0311391 -0.00915525 0)
(-0.0293811 -0.00925414 0)
(-0.0276052 -0.00930225 0)
(-0.0258209 -0.00929873 0)
(-0.0240375 -0.00924314 0)
(-0.0222644 -0.00913546 0)
(-0.0205109 -0.00897611 0)
(-0.0187864 -0.00876597 0)
(-0.0170999 -0.0085064 0)
(-0.0154602 -0.00819921 0)
(-0.0138759 -0.00784674 0)
(-0.0123549 -0.00745179 0)
(-0.0109046 -0.00701769 0)
(-0.00953198 -0.00654829 0)
(-0.00824305 -0.00604794 0)
(-0.00704316 -0.00552157 0)
(-0.00593674 -0.00497467 0)
(-0.00492725 -0.00441331 0)
(-0.00401708 -0.00384422 0)
(-0.00320752 -0.00327483 0)
(-0.00249863 -0.00271331 0)
(-0.00188923 -0.00216868 0)
(-0.00137679 -0.00165091 0)
(-0.000957424 -0.00117104 0)
(-0.000625838 -0.000741326 0)
(-0.000375307 -0.000375415 0)
(-0.000197611 -8.85827e-05 0)
(-8.29517e-05 0.00010209 0)
(-2.07278e-05 0.00017743 0)
(-6.98439e-07 0.000114576 0)
(-1.69465e-05 0.000126141 0)
(-0.000122909 0.000520133 0)
(-0.000363377 0.00101667 0)
(-0.000723502 0.00158462 0)
(-0.00119752 0.00219915 0)
(-0.00178373 0.0028396 0)
(-0.00247928 0.00348899 0)
(-0.00328043 0.00413368 0)
(-0.00418291 0.00476284 0)
(-0.00518198 0.00536804 0)
(-0.00627239 0.00594288 0)
(-0.00744854 0.00648263 0)
(-0.00870447 0.00698395 0)
(-0.010034 0.00744461 0)
(-0.0114307 0.00786331 0)
(-0.0128882 0.00823944 0)
(-0.0144 0.00857296 0)
(-0.0159594 0.00886422 0)
(-0.0175601 0.0091139 0)
(-0.0191955 0.00932285 0)
(-0.0208593 0.00949207 0)
(-0.0225453 0.00962263 0)
(-0.0242474 0.00971557 0)
(-0.0259594 0.00977195 0)
(-0.0276755 0.00979274 0)
(-0.0293898 0.00977887 0)
(-0.0310967 0.00973113 0)
(-0.0327904 0.00965027 0)
(-0.0344655 0.00953691 0)
(-0.0361165 0.00939159 0)
(-0.0377379 0.00921477 0)
(-0.0393245 0.00900686 0)
(-0.0408709 0.00876817 0)
(-0.0423719 0.00849902 0)
(-0.0438224 0.0081997 0)
(-0.0452173 0.00787049 0)
(-0.0465514 0.00751171 0)
(-0.0478199 0.00712372 0)
(-0.0490178 0.00670695 0)
(-0.0501404 0.00626192 0)
(-0.051183 0.00578927 0)
(-0.052141 0.00528975 0)
(-0.0530101 0.00476428 0)
(-0.0537861 0.00421393 0)
(-0.054465 0.00363997 0)
(-0.0550431 0.00304383 0)
(-0.055517 0.00242719 0)
(-0.0558834 0.0017919 0)
(-0.0561395 0.00114005 0)
(-0.0562829 0.000473956 0)
(-0.0563115 -0.000203863 0)
(-0.0562237 -0.000890663 0)
(-0.0560184 -0.00158349 0)
(-0.0556949 -0.00227919 0)
(-0.0552531 -0.00297444 0)
(-0.0546934 -0.00366572 0)
(-0.0540167 -0.00434937 0)
(-0.0532248 -0.00502163 0)
(-0.0523197 -0.00567861 0)
(-0.0513043 -0.00631637 0)
(-0.0501821 -0.00693091 0)
(-0.0489571 -0.00751825 0)
(-0.0476341 -0.00807443 0)
(-0.0462184 -0.00859557 0)