/*--------------------------------*- C++ -*----------------------------------*\
| =========                 |                                                 |
| \\      /  F ield         | OpenFOAM: The Open Source CFD Toolbox           |
|  \\    /   O peration     | Version:  2512                                  |
|   \\  /    A nd           | Website:  www.openfoam.com                      |
|    \\/     M anipulation  |                                                 |
\*---------------------------------------------------------------------------*/
FoamFile
{
    version     2.0;
    format      ascii;
    arch        "LSB;label=32;scalar=64";
    class       volVectorField;
    location    "0.36";
    object      U;
}
// * * * * * * * * * * * * * * * * * * * * * * * * * * * * * * * * * * * * * //

dimensions      [0 1 -1 0 0 0 0];

internalField   nonuniform List<vector> 
10000
(
(3.27186e-06 -3.23388e-06 0)
(1.38863e-05 -6.74856e-06 0)
(2.83653e-05 -6.85251e-06 0)
(3.94932e-05 -4.9782e-06 0)
(4.33831e-05 -2.20449e-06 0)
(3.84496e-05 9.05854e-07 0)
(2.41038e-05 4.05714e-06 0)
(3.08653e-07 7.09961e-06 0)
(-3.26361e-05 9.95674e-06 0)
(-7.42394e-05 1.25935e-05 0)
(-0.000123899 1.49968e-05 0)
(-0.000180963 1.71659e-05 0)
(-0.00024476 1.91052e-05 0)
(-0.000314616 2.08236e-05 0)
(-0.000389875 2.23331e-05 0)
(-0.000469903 2.36465e-05 0)
(-0.000554093 2.47769e-05 0)
(-0.00064187 2.57364e-05 0)
(-0.000732692 2.65377e-05 0)
(-0.000826048 2.7193e-05 0)
(-0.000921457 2.77113e-05 0)
(-0.00101847 2.81018e-05 0)
(-0.00111665 2.83735e-05 0)
(-0.00121562 2.85333e-05 0)
(-0.00131497 2.85889e-05 0)
(-0.00141437 2.85473e-05 0)
(-0.00151347 2.8412e-05 0)
(-0.00161192 2.81859e-05 0)
(-0.00170943 2.78728e-05 0)
(-0.00180568 2.7475e-05 0)
(-0.00190036 2.6994e-05 0)
(-0.00199319 2.64319e-05 0)
(-0.00208387 2.5789e-05 0)
(-0.00217211 2.50643e-05 0)
(-0.00225763 2.42574e-05 0)
(-0.00234012 2.33689e-05 0)
(-0.00241932 2.23984e-05 0)
(-0.00249493 2.13451e-05 0)
(-0.00256665 2.02089e-05 0)
(-0.00263421 1.89898e-05 0)
(-0.00269732 1.76875e-05 0)
(-0.0027557 1.63014e-05 0)
(-0.00280905 1.48321e-05 0)
(-0.00285712 1.32822e-05 0)
(-0.00289963 1.16543e-05 0)
(-0.00293632 9.95012e-06 0)
(-0.00296694 8.17234e-06 0)
(-0.00299128 6.32481e-06 0)
(-0.00300909 4.41314e-06 0)
(-0.0030202 2.44406e-06 0)
(-0.00302443 4.23991e-07 0)
(-0.00302161 -1.64037e-06 0)
(-0.00301164 -3.74084e-06 0)
(-0.00299443 -5.86783e-06 0)
(-0.0029699 -8.01038e-06 0)
(-0.00293805 -1.01568e-05 0)
(-0.00289888 -1.22958e-05 0)
(-0.00285246 -1.44156e-05 0)
(-0.00279888 -1.65031e-05 0)
(-0.0027383 -1.85441e-05 0)
(-0.00267089 -2.05241e-05 0)
(-0.0025969 -2.24286e-05 0)
(-0.00251662 -2.42433e-05 0)
(-0.00243037 -2.59544e-05 0)
(-0.00233854 -2.75478e-05 0)
(-0.00224155 -2.90094e-05 0)
(-0.00213988 -3.03254e-05 0)
(-0.00203402 -3.14831e-05 0)
(-0.00192454 -3.24702e-05 0)
(-0.00181203 -3.32759e-05 0)
(-0.0016971 -3.38909e-05 0)
(-0.00158042 -3.43063e-05 0)
(-0.00146265 -3.45149e-05 0)
(-0.00134451 -3.45109e-05 0)
(-0.00122669 -3.42906e-05 0)
(-0.00110994 -3.38512e-05 0)
(-0.000994964 -3.3192e-05 0)
(-0.000882501 -3.23138e-05 0)
(-0.000773266 -3.12198e-05 0)
(-0.000667965 -2.99148e-05 0)
(-0.000567282 -2.84052e-05 0)
(-0.000471876 -2.66991e-05 0)
(-0.000382374 -2.48064e-05 0)
(-0.000299365 -2.27385e-05 0)
(-0.000223391 -2.05087e-05 0)
(-0.000154944 -1.81323e-05 0)
(-9.44564e-05 -1.56268e-05 0)
(-4.22918e-05 -1.30119e-05 0)
(1.26348e-06 -1.03102e-05 0)
(3.60149e-05 -7.54873e-06 0)
(6.18737e-05 -4.75918e-06 0)
(7.88834e-05 -1.98492e-06 0)
(8.72538e-05 7.18418e-07 0)
(8.74114e-05 3.26951e-06 0)
(8.00818e-05 5.54424e-06 0)
(6.64158e-05 7.34707e-06 0)
(4.81535e-05 8.36814e-06 0)
(2.79346e-05 8.10199e-06 0)
(1.02026e-05 5.80265e-06 0)
(1.33377e-06 1.33832e-06 0)
(6.81968e-06 -1.39033e-05 0)
(2.4981e-05 -2.48666e-05 0)
(4.49508e-05 -2.23931e-05 0)
(5.44895e-05 -1.1629e-05 0)
(4.61806e-05 3.6535e-06 0)
(1.62453e-05 2.11026e-05 0)
(-3.71687e-05 3.92729e-05 0)
(-0.000114628 5.72837e-05 0)
(-0.000215803 7.46037e-05 0)
(-0.000339774 9.09234e-05 0)
(-0.000485258 0.000106068 0)
(-0.000650746 0.00011995 0)
(-0.000834608 0.000132541 0)
(-0.00103516 0.000143845 0)
(-0.00125072 0.000153892 0)
(-0.00147961 0.000162728 0)
(-0.00172022 0.000170407 0)
(-0.001971 0.000176986 0)
(-0.00223046 0.000182527 0)
(-0.00249718 0.000187088 0)
(-0.0027698 0.000190728 0)
(-0.00304707 0.000193499 0)
(-0.00332776 0.00019545 0)
(-0.00361073 0.000196627 0)
(-0.00389488 0.000197069 0)
(-0.00417917 0.000196812 0)
(-0.0044626 0.000195885 0)
(-0.00474422 0.000194313 0)
(-0.00502308 0.000192118 0)
(-0.00529829 0.000189314 0)
(-0.00556896 0.000185915 0)
(-0.00583423 0.00018193 0)
(-0.00609324 0.000177366 0)
(-0.00634516 0.000172226 0)
(-0.00658913 0.000166513 0)
(-0.00682433 0.000160227 0)
(-0.00704993 0.000153369 0)
(-0.00726511 0.00014594 0)
(-0.00746904 0.000137941 0)
(-0.0076609 0.000129376 0)
(-0.00783989 0.000120247 0)
(-0.0080052 0.000110561 0)
(-0.00815606 0.000100326 0)
(-0.0082917 8.95563e-05 0)
(-0.00841137 7.82697e-05 0)
(-0.00851437 6.64862e-05 0)
(-0.00860001 5.42307e-05 0)
(-0.00866767 4.15336e-05 0)
(-0.00871675 2.8431e-05 0)
(-0.00874673 1.49649e-05 0)
(-0.00875714 1.18203e-06 0)
(-0.00874759 -1.28663e-05 0)
(-0.00871776 -2.71221e-05 0)
(-0.00866743 -4.15218e-05 0)
(-0.00859646 -5.59961e-05 0)
(-0.00850482 -7.0471e-05 0)
(-0.00839259 -8.48682e-05 0)
(-0.00825995 -9.91062e-05 0)
(-0.00810721 -0.000113099 0)
(-0.0079348 -0.000126757 0)
(-0.00774327 -0.000139988 0)
(-0.00753331 -0.0001527 0)
(-0.00730574 -0.0001648 0)
(-0.00706148 -0.000176196 0)
(-0.00680163 -0.000186798 0)
(-0.00652736 -0.000196515 0)
(-0.00623999 -0.000205262 0)
(-0.00594096 -0.000212957 0)
(-0.00563181 -0.000219526 0)
(-0.00531417 -0.000224898 0)
(-0.00498977 -0.000229013 0)
(-0.00466042 -0.000231817 0)
(-0.004328 -0.000233265 0)
(-0.00399443 -0.000233322 0)
(-0.00366169 -0.000231963 0)
(-0.00333178 -0.000229175 0)
(-0.00300668 -0.000224957 0)
(-0.00268841 -0.000219316 0)
(-0.00237893 -0.000212276 0)
(-0.00208017 -0.00020387 0)
(-0.00179402 -0.000194143 0)
(-0.00152227 -0.000183153 0)
(-0.00126663 -0.000170972 0)
(-0.00102867 -0.000157682 0)
(-0.00080988 -0.000143379 0)
(-0.000611546 -0.000128176 0)
(-0.000434806 -0.0001122 0)
(-0.000280589 -9.55976e-05 0)
(-0.00014959 -7.85391e-05 0)
(-4.22321e-05 -6.12244e-05 0)
(4.13753e-05 -4.38946e-05 0)
(0.000101511 -2.68471e-05 0)
(0.000138928 -1.04628e-05 0)
(0.000154961 4.75484e-06 0)
(0.000151702 1.81178e-05 0)
(0.000132214 2.86678e-05 0)
(0.000100742 3.50679e-05 0)
(6.29947e-05 3.54608e-05 0)
(2.74517e-05 2.7503e-05 0)
(5.76587e-06 1.01795e-05 0)
(6.96152e-06 -2.84919e-05 0)
(2.26903e-05 -4.49396e-05 0)
(3.38206e-05 -3.34448e-05 0)
(2.64931e-05 -4.1269e-06 0)
(-8.02116e-06 3.58576e-05 0)
(-7.46157e-05 8.15496e-05 0)
(-0.000175953 0.000129585 0)
(-0.000313038 0.000177728 0)
(-0.000485634 0.000224527 0)
(-0.000692642 0.000269048 0)
(-0.000932374 0.000310718 0)
(-0.00120275 0.000349206 0)
(-0.00150147 0.000384345 0)
(-0.00182608 0.000416086 0)
(-0.00217409 0.000444453 0)
(-0.00254301 0.000469525 0)
(-0.00293039 0.000491412 0)
(-0.00333384 0.000510245 0)
(-0.00375106 0.000526168 0)
(-0.00417983 0.000539323 0)
(-0.00461805 0.000549855 0)
(-0.00506369 0.000557903 0)
(-0.00551484 0.000563592 0)
(-0.00596963 0.000567041 0)
(-0.00642633 0.000568357 0)
(-0.00688324 0.000567634 0)
(-0.00733875 0.000564952 0)
(-0.00779129 0.000560383 0)
(-0.00823936 0.000553986 0)
(-0.00868148 0.000545805 0)
(-0.0091162 0.000535878 0)
(-0.00954213 0.000524235 0)
(-0.00995788 0.000510897 0)
(-0.0103621 0.00049588 0)
(-0.0107533 0.000479194 0)
(-0.0111303 0.000460847 0)
(-0.0114917 0.000440846 0)
(-0.0118362 0.000419197 0)
(-0.0121625 0.000395909 0)
(-0.0124691 0.000370996 0)
(-0.012755 0.000344475 0)
(-0.0130187 0.00031637 0)
(-0.0132591 0.000286713 0)
(-0.013475 0.000255546 0)
(-0.0136651 0.000222921 0)
(-0.0138284 0.000188903 0)
(-0.0139639 0.000153569 0)
(-0.0140704 0.00011701 0)
(-0.0141472 7.9332e-05 0)
(-0.0141935 4.06543e-05 0)
(-0.0142084 1.113e-06 0)
(-0.0141915 -3.91413e-05 0)
(-0.0141422 -7.9943e-05 0)
(-0.0140602 -0.00012111 0)
(-0.0139454 -0.000162448 0)
(-0.0137977 -0.000203746 0)
(-0.0136173 -0.000244785 0)
(-0.0134045 -0.000285333 0)
(-0.0131599 -0.000325148 0)
(-0.012884 -0.000363979 0)
(-0.0125779 -0.000401573 0)
(-0.0122426 -0.00043767 0)
(-0.0118794 -0.000472012 0)
(-0.0114899 -0.000504341 0)
(-0.0110757 -0.000534404 0)
(-0.0106387 -0.000561954 0)
(-0.010181 -0.000586754 0)
(-0.00970484 -0.000608579 0)
(-0.00921266 -0.000627221 0)
(-0.00870702 -0.000642488 0)
(-0.00819064 -0.000654211 0)
(-0.00766635 -0.000662243 0)
(-0.00713709 -0.000666462 0)
(-0.00660587 -0.000666773 0)
(-0.00607577 -0.00066311 0)
(-0.00554992 -0.000655439 0)
(-0.00503143 -0.000643758 0)
(-0.00452341 -0.000628096 0)
(-0.00402894 -0.000608518 0)
(-0.00355103 -0.000585123 0)
(-0.00309258 -0.000558045 0)
(-0.00265639 -0.000527454 0)
(-0.00224508 -0.000493554 0)
(-0.00186112 -0.000456592 0)
(-0.00150674 -0.000416851 0)
(-0.00118392 -0.000374658 0)
(-0.000894383 -0.000330391 0)
(-0.000639492 -0.000284482 0)
(-0.00042025 -0.000237433 0)
(-0.000237222 -0.000189832 0)
(-9.04664e-05 -0.000142379 0)
(2.05546e-05 -9.59203e-05 0)
(9.70919e-05 -5.15109e-05 0)
(0.000141249 -1.04858e-05 0)
(0.000156172 2.54323e-05 0)
(0.000146269 5.40006e-05 0)
(0.000117362 7.23195e-05 0)
(7.68711e-05 7.67359e-05 0)
(3.54211e-05 6.30214e-05 0)
(8.03787e-06 2.78275e-05 0)
(5.14072e-06 -3.98745e-05 0)
(1.20943e-05 -5.47441e-05 0)
(4.74426e-06 -2.62002e-05 0)
(-2.99882e-05 3.05393e-05 0)
(-0.000100806 0.000104881 0)
(-0.000212984 0.000189131 0)
(-0.000369491 0.000277793 0)
(-0.000571506 0.000367045 0)
(-0.000818825 0.000454263 0)
(-0.00111022 0.000537688 0)
(-0.00144371 0.000616174 0)
(-0.00181684 0.000689014 0)
(-0.00222677 0.000755809 0)
(-0.0026705 0.000816387 0)
(-0.0031449 0.000870724 0)
(-0.00364681 0.000918909 0)
(-0.00417309 0.000961104 0)
(-0.00472065 0.000997513 0)
(-0.00528651 0.00102837 0)
(-0.00586775 0.00105393 0)
(-0.0064616 0.00107442 0)
(-0.00706535 0.00109011 0)
(-0.00767644 0.00110121 0)
(-0.00829241 0.00110794 0)
(-0.00891088 0.0011105 0)
(-0.00952957 0.00110905 0)
(-0.0101463 0.00110376 0)
(-0.0107589 0.00109474 0)
(-0.0113654 0.00108212 0)
(-0.0119637 0.00106598 0)
(-0.0125518 0.0010464 0)
(-0.0131279 0.00102344 0)
(-0.0136901 0.000997132 0)
(-0.0142364 0.000967523 0)
(-0.014765 0.000934636 0)
(-0.0152742 0.000898494 0)
(-0.015762 0.000859115 0)
(-0.0162268 0.000816521 0)
(-0.0166666 0.000770736 0)
(-0.0170798 0.000721792 0)
(-0.0174647 0.000669732 0)
(-0.0178195 0.000614608 0)
(-0.0181426 0.000556493 0)
(-0.0184323 0.000495473 0)
(-0.0186873 0.000431657 0)
(-0.0189058 0.000365177 0)
(-0.0190867 0.000296188 0)
(-0.0192286 0.000224872 0)
(-0.0193303 0.000151437 0)
(-0.0193907 7.61188e-05 0)
(-0.019409 -8.16147e-07 0)
(-0.0193845 -7.90735e-05 0)
(-0.0193164 -0.00015833 0)
(-0.0192044 -0.000238237 0)
(-0.0190484 -0.000318415 0)
(-0.0188482 -0.000398463 0)
(-0.0186043 -0.000477957 0)
(-0.0183169 -0.000556451 0)
(-0.0179869 -0.000633482 0)
(-0.0176152 -0.000708573 0)
(-0.0172031 -0.000781237 0)
(-0.0167519 -0.000850984 0)
(-0.0162635 -0.000917318 0)
(-0.0157399 -0.000979751 0)
(-0.0151834 -0.0010378 0)
(-0.0145964 -0.001091 0)
(-0.0139817 -0.00113889 0)
(-0.0133424 -0.00118106 0)
(-0.0126816 -0.00121711 0)
(-0.0120027 -0.00124668 0)
(-0.0113094 -0.00126945 0)
(-0.0106053 -0.00128513 0)
(-0.00989447 -0.00129351 0)
(-0.00918074 -0.0012944 0)
(-0.00846821 -0.00128768 0)
(-0.007761 -0.0012733 0)
(-0.00706321 -0.00125125 0)
(-0.00637895 -0.00122159 0)
(-0.00571226 -0.00118446 0)
(-0.00506708 -0.00114004 0)
(-0.00444724 -0.00108861 0)
(-0.00385638 -0.0010305 0)
(-0.00329796 -0.000966102 0)
(-0.00277517 -0.00089591 0)
(-0.00229092 -0.000820479 0)
(-0.00184778 -0.000740455 0)
(-0.00144794 -0.000656579 0)
(-0.00109314 -0.000569702 0)
(-0.000784616 -0.000480803 0)
(-0.000523048 -0.000391024 0)
(-0.00030844 -0.000301709 0)
(-0.000140037 -0.00021446 0)
(-1.62021e-05 -0.000131223 0)
(6.57312e-05 -5.43885e-05 0)
(0.000109631 1.30668e-05 0)
(0.000120767 6.74252e-05 0)
(0.00010591 0.000104072 0)
(7.34958e-05 0.000117414 0)
(3.53628e-05 0.00010101 0)
(8.33047e-06 4.80087e-05 0)
(2.40691e-06 -4.40868e-05 0)
(-3.16323e-06 -4.67168e-05 0)
(-3.5459e-05 8.3106e-06 0)
(-0.000104996 0.000101432 0)
(-0.000219483 0.0002189 0)
(-0.000384005 0.000350458 0)
(-0.000601416 0.000488543 0)
(-0.000872796 0.000627702 0)
(-0.00119783 0.000764063 0)
(-0.00157511 0.000894937 0)
(-0.00200242 0.0010185 0)
(-0.00247697 0.00113357 0)
(-0.00299553 0.00123945 0)
(-0.00355464 0.00133576 0)
(-0.00415066 0.00142241 0)
(-0.00477988 0.00149945 0)
(-0.00543861 0.00156707 0)
(-0.00612317 0.00162555 0)
(-0.00682996 0.0016752 0)
(-0.0075555 0.00171639 0)
(-0.00829639 0.00174947 0)
(-0.00904936 0.0017748 0)
(-0.00981127 0.00179271 0)
(-0.0105791 0.00180355 0)
(-0.0113498 0.00180759 0)
(-0.0121207 0.00180511 0)
(-0.012889 0.00179635 0)
(-0.0136521 0.0017815 0)
(-0.0144073 0.00176075 0)
(-0.0151522 0.00173424 0)
(-0.0158844 0.00170209 0)
(-0.0166013 0.0016644 0)
(-0.0173007 0.00162124 0)
(-0.0179802 0.00157268 0)
(-0.0186374 0.00151876 0)
(-0.0192702 0.00145954 0)
(-0.0198762 0.00139505 0)
(-0.0204533 0.00132533 0)
(-0.0209992 0.00125044 0)
(-0.0215117 0.00117044 0)
(-0.0219887 0.0010854 0)
(-0.0224282 0.000995426 0)
(-0.0228281 0.000900638 0)
(-0.0231865 0.000801188 0)
(-0.0235014 0.000697262 0)
(-0.023771 0.00058908 0)
(-0.0239938 0.000476901 0)
(-0.0241681 0.000361026 0)
(-0.0242925 0.000241796 0)
(-0.0243657 0.0001196 0)
(-0.0243867 -5.1319e-06 0)
(-0.0243546 -0.000131921 0)
(-0.0242687 -0.000260244 0)
(-0.0241285 -0.000389537 0)
(-0.0239338 -0.000519193 0)
(-0.0236847 -0.000648566 0)
(-0.0233815 -0.000776974 0)
(-0.0230249 -0.000903706 0)
(-0.0226156 -0.00102802 0)
(-0.0221549 -0.00114916 0)
(-0.0216444 -0.00126635 0)
(-0.0210859 -0.0013788 0)
(-0.0204815 -0.00148573 0)
(-0.0198338 -0.00158636 0)
(-0.0191454 -0.00167992 0)
(-0.0184196 -0.00176568 0)
(-0.0176596 -0.00184292 0)
(-0.0168692 -0.00191096 0)
(-0.0160523 -0.0019692 0)
(-0.015213 -0.00201704 0)
(-0.0143556 -0.00205399 0)
(-0.0134849 -0.00207961 0)
(-0.0126054 -0.00209353 0)
(-0.011722 -0.0020955 0)
(-0.0108397 -0.0020853 0)
(-0.00996346 -0.00206287 0)
(-0.00909824 -0.00202819 0)
(-0.00824904 -0.00198137 0)
(-0.00742076 -0.00192264 0)
(-0.00661817 -0.0018523 0)
(-0.00584591 -0.0017708 0)
(-0.00510839 -0.00167867 0)
(-0.00440977 -0.00157658 0)
(-0.0037539 -0.0014653 0)
(-0.00314426 -0.00134576 0)
(-0.00258396 -0.001219 0)
(-0.00207558 -0.00108622 0)
(-0.00162119 -0.000948812 0)
(-0.00122225 -0.000808344 0)
(-0.000879541 -0.000666644 0)
(-0.000593039 -0.000525836 0)
(-0.000361854 -0.000388416 0)
(-0.00018409 -0.000257355 0)
(-5.67185e-05 -0.00013622 0)
(2.45751e-05 -2.93314e-05 0)
(6.55586e-05 5.80627e-05 0)
(7.35392e-05 0.000119604 0)
(5.75175e-05 0.000147712 0)
(2.98005e-05 0.000133543 0)
(7.42815e-06 6.65004e-05 0)
(-6.97249e-07 -3.94585e-05 0)
(-2.0849e-05 -1.6783e-05 0)
(-8.21386e-05 7.55085e-05 0)
(-0.000191438 0.000214537 0)
(-0.000354767 0.0003839 0)
(-0.000576568 0.000571081 0)
(-0.000859235 0.000766616 0)
(-0.00120349 0.000963499 0)
(-0.00160873 0.00115662 0)
(-0.0020733 0.00134234 0)
(-0.00259471 0.00151809 0)
(-0.00316985 0.00168218 0)
(-0.00379517 0.00183354 0)
(-0.00446679 0.00197157 0)
(-0.00518066 0.00209602 0)
(-0.00593262 0.00220691 0)
(-0.00671849 0.00230443 0)
(-0.0075341 0.00238891 0)
(-0.00837535 0.00246075 0)
(-0.00923823 0.00252039 0)
(-0.0101188 0.00256833 0)
(-0.0110133 0.00260502 0)
(-0.0119181 0.00263094 0)
(-0.0128296 0.00264653 0)
(-0.0137443 0.00265219 0)
(-0.014659 0.00264829 0)
(-0.0155705 0.00263515 0)
(-0.0164755 0.00261308 0)
(-0.017371 0.00258231 0)
(-0.0182541 0.00254306 0)
(-0.0191219 0.0024955 0)
(-0.0199714 0.00243978 0)
(-0.0207999 0.00237601 0)
(-0.0216047 0.00230429 0)
(-0.0223828 0.00222471 0)
(-0.0231318 0.00213733 0)
(-0.0238488 0.00204223 0)
(-0.0245312 0.00193948 0)
(-0.0251766 0.00182917 0)
(-0.0257822 0.0017114 0)
(-0.0263456 0.0015863 0)
(-0.0268644 0.00145402 0)
(-0.0273361 0.00131475 0)
(-0.0277586 0.00116874 0)
(-0.0281295 0.00101625 0)
(-0.0284469 0.00085763 0)
(-0.0287087 0.000693258 0)
(-0.0289132 0.000523581 0)
(-0.0290588 0.000349105 0)
(-0.0291439 0.000170399 0)
(-0.0291674 -1.19008e-05 0)
(-0.0291282 -0.000197099 0)
(-0.0290256 -0.000384433 0)
(-0.0288591 -0.000573082 0)
(-0.0286285 -0.000762166 0)
(-0.0283338 -0.000950748 0)
(-0.0279755 -0.00113784 0)
(-0.0275544 -0.00132242 0)
(-0.0270714 -0.00150342 0)
(-0.0265281 -0.00167975 0)
(-0.0259262 -0.00185028 0)
(-0.0252679 -0.00201389 0)
(-0.0245557 -0.00216946 0)
(-0.0237926 -0.00231586 0)
(-0.0229818 -0.002452 0)
(-0.0221269 -0.00257681 0)
(-0.0212318 -0.00268929 0)
(-0.0203008 -0.00278845 0)
(-0.0193384 -0.00287342 0)
(-0.0183496 -0.00294337 0)
(-0.0173393 -0.00299758 0)
(-0.0163129 -0.00303543 0)
(-0.0152758 -0.0030564 0)
(-0.0142337 -0.00306011 0)
(-0.0131922 -0.00304629 0)
(-0.0121572 -0.00301482 0)
(-0.0111344 -0.00296571 0)
(-0.0101296 -0.00289912 0)
(-0.00914844 -0.00281537 0)
(-0.00819649 -0.00271493 0)
(-0.00727907 -0.00259844 0)
(-0.00640129 -0.00246668 0)
(-0.00556794 -0.00232064 0)
(-0.00478346 -0.00216145 0)
(-0.00405187 -0.00199045 0)
(-0.00337669 -0.00180917 0)
(-0.00276093 -0.00161937 0)
(-0.00220695 -0.00142304 0)
(-0.00171641 -0.00122246 0)
(-0.00129022 -0.00102025 0)
(-0.00092838 -0.000819395 0)
(-0.000629958 -0.000623399 0)
(-0.000392924 -0.000436339 0)
(-0.000214063 -0.000263023 0)
(-8.8835e-05 -0.000109154 0)
(-1.12457e-05 1.84812e-05 0)
(2.62374e-05 0.000111798 0)
(3.28371e-05 0.000161249 0)
(2.07001e-05 0.00015563 0)
(5.85954e-06 8.0964e-05 0)
(-3.90069e-06 -2.5246e-05 0)
(-3.96356e-05 3.73868e-05 0)
(-0.000132245 0.000178811 0)
(-0.000284405 0.000373854 0)
(-0.000499998 0.00060403 0)
(-0.000782498 0.000854935 0)
(-0.00113355 0.00111546 0)
(-0.0015533 0.00137719 0)
(-0.00204068 0.00163386 0)
(-0.00259369 0.00188089 0)
(-0.0032095 0.00211501 0)
(-0.00388466 0.00233398 0)
(-0.0046153 0.00253632 0)
(-0.00539718 0.00272118 0)
(-0.00622589 0.00288816 0)
(-0.00709686 0.00303719 0)
(-0.0080055 0.00316846 0)
(-0.00894722 0.00328231 0)
(-0.00991746 0.00337922 0)
(-0.0109118 0.00345974 0)
(-0.0119258 0.00352446 0)
(-0.0129552 0.00357396 0)
(-0.013996 0.00360884 0)
(-0.0150441 0.00362965 0)
(-0.0160956 0.00363691 0)
(-0.0171468 0.0036311 0)
(-0.0181939 0.00361265 0)
(-0.0192334 0.00358193 0)
(-0.0202618 0.00353929 0)
(-0.0212757 0.00348499 0)
(-0.0222718 0.00341927 0)
(-0.0232467 0.00334234 0)
(-0.0241973 0.00325435 0)
(-0.0251204 0.00315545 0)
(-0.0260128 0.00304576 0)
(-0.0268714 0.00292538 0)
(-0.0276931 0.00279444 0)
(-0.0284751 0.00265303 0)
(-0.0292142 0.0025013 0)
(-0.0299077 0.00233941 0)
(-0.0305526 0.00216753 0)
(-0.0311462 0.00198589 0)
(-0.0316857 0.00179478 0)
(-0.0321686 0.00159453 0)
(-0.0325925 0.00138553 0)
(-0.0329549 0.00116824 0)
(-0.0332537 0.000943212 0)
(-0.0334868 0.000711052 0)
(-0.0336525 0.000472462 0)
(-0.0337491 0.000228223 0)
(-0.0337753 -2.07991e-05 0)
(-0.0337299 -0.000273651 0)
(-0.0336121 -0.000529298 0)
(-0.0334214 -0.000786623 0)
(-0.0331575 -0.00104443 0)
(-0.0328206 -0.00130146 0)
(-0.0324112 -0.00155637 0)
(-0.0319301 -0.00180778 0)
(-0.0313786 -0.00205425 0)
(-0.0307583 -0.0022943 0)
(-0.0300713 -0.00252643 0)
(-0.0293201 -0.00274912 0)
(-0.0285075 -0.00296087 0)
(-0.0276368 -0.00316017 0)
(-0.0267116 -0.00334554 0)
(-0.0257361 -0.00351556 0)
(-0.0247147 -0.00366886 0)
(-0.0236521 -0.00380415 0)
(-0.0225536 -0.00392024 0)
(-0.0214245 -0.00401603 0)
(-0.0202706 -0.00409055 0)
(-0.0190979 -0.00414297 0)
(-0.0179124 -0.00417261 0)
(-0.0167205 -0.00417896 0)
(-0.0155287 -0.00416165 0)
(-0.0143433 -0.00412053 0)
(-0.013171 -0.00405563 0)
(-0.0120182 -0.00396717 0)
(-0.0108912 -0.00385559 0)
(-0.00979635 -0.00372154 0)
(-0.00873952 -0.00356587 0)
(-0.00772648 -0.00338969 0)
(-0.0067626 -0.0031943 0)
(-0.00585287 -0.00298128 0)
(-0.00500179 -0.00275244 0)
(-0.00421332 -0.00250985 0)
(-0.00349081 -0.0022559 0)
(-0.00283693 -0.00199327 0)
(-0.00225358 -0.00172502 0)
(-0.00174179 -0.00145463 0)
(-0.0013017 -0.00118606 0)
(-0.000932382 -0.000923844 0)
(-0.000631802 -0.00067323 0)
(-0.000396703 -0.000440295 0)
(-0.000222505 -0.000232127 0)
(-0.000103201 -5.70254e-05 0)
(-3.12749e-05 7.52613e-05 0)
(2.43622e-06 0.00015333 0)
(9.43862e-06 0.000163825 0)
(3.94344e-06 9.00002e-05 0)
(-7.07044e-06 -1.18275e-06 0)
(-5.87532e-05 0.000116971 0)
(-0.000183836 0.000320192 0)
(-0.00038059 0.000581867 0)
(-0.000650529 0.000881986 0)
(-0.000995921 0.00120466 0)
(-0.00141745 0.00153742 0)
(-0.00191448 0.00187065 0)
(-0.00248538 0.00219705 0)
(-0.00312763 0.00251118 0)
(-0.00383802 0.0028091 0)
(-0.00461274 0.00308802 0)
(-0.00544754 0.00334609 0)
(-0.00633786 0.00358219 0)
(-0.00727893 0.00379573 0)
(-0.00826583 0.00398655 0)
(-0.0092936 0.00415481 0)
(-0.0103573 0.00430089 0)
(-0.0114519 0.00442532 0)
(-0.0125726 0.00452873 0)
(-0.0137147 0.00461181 0)
(-0.0148734 0.00467528 0)
(-0.0160443 0.00471983 0)
(-0.0172229 0.00474614 0)
(-0.0184049 0.00475486 0)
(-0.0195861 0.00474657 0)
(-0.0207624 0.0047218 0)
(-0.02193 0.00468102 0)
(-0.0230848 0.00462466 0)
(-0.0242231 0.00455306 0)
(-0.0253411 0.00446652 0)
(-0.0264352 0.00436532 0)
(-0.0275017 0.00424966 0)
(-0.0285371 0.00411973 0)
(-0.0295379 0.00397571 0)
(-0.0305007 0.00381774 0)
(-0.0314219 0.00364598 0)
(-0.0322983 0.0034606 0)
(-0.0331266 0.00326179 0)
(-0.0339035 0.00304976 0)
(-0.0346258 0.00282477 0)
(-0.0352905 0.00258714 0)
(-0.0358946 0.00233724 0)
(-0.0364352 0.00207553 0)
(-0.0369095 0.00180253 0)
(-0.037315 0.00151886 0)
(-0.0376494 0.00122522 0)
(-0.0379102 0.000922441 0)
(-0.0380956 0.000611423 0)
(-0.0382038 0.00029319 0)
(-0.0382332 -3.11268e-05 0)
(-0.0381827 -0.000360292 0)
(-0.0380514 -0.000692961 0)
(-0.0378387 -0.00102769 0)
(-0.0375443 -0.00136293 0)
(-0.0371685 -0.00169705 0)
(-0.0367118 -0.00202834 0)
(-0.0361752 -0.002355 0)
(-0.03556 -0.00267518 0)
(-0.0348681 -0.00298699 0)
(-0.0341018 -0.00328849 0)
(-0.0332637 -0.00357774 0)
(-0.0323572 -0.0038528 0)
(-0.0313857 -0.00411174 0)
(-0.0303533 -0.00435267 0)
(-0.0292646 -0.00457377 0)
(-0.0281244 -0.00477327 0)
(-0.0269381 -0.00494954 0)
(-0.0257112 -0.00510103 0)
(-0.0244498 -0.00522635 0)
(-0.0231601 -0.00532425 0)
(-0.0218488 -0.00539369 0)
(-0.0205225 -0.00543378 0)
(-0.0191883 -0.00544386 0)
(-0.0178532 -0.0054235 0)
(-0.0165244 -0.00537248 0)
(-0.015209 -0.00529086 0)
(-0.0139142 -0.00517892 0)
(-0.012647 -0.00503725 0)
(-0.0114141 -0.00486668 0)
(-0.0102222 -0.00466833 0)
(-0.00907766 -0.00444362 0)
(-0.00798634 -0.00419426 0)
(-0.00695373 -0.00392228 0)
(-0.00598481 -0.00363002 0)
(-0.00508395 -0.00332016 0)
(-0.00425487 -0.00299577 0)
(-0.00350054 -0.00266028 0)
(-0.00282311 -0.0023176 0)
(-0.00222384 -0.00197212 0)
(-0.00170298 -0.0016288 0)
(-0.00125975 -0.00129329 0)
(-0.000892201 -0.000972006 0)
(-0.000597166 -0.000672302 0)
(-0.00037017 -0.000402628 0)
(-0.000205362 -0.000172741 0)
(-9.54342e-05 6.04971e-06 0)
(-3.15078e-05 0.000120653 0)
(-3.04464e-06 0.000155866 0)
(1.87287e-06 9.28037e-05 0)
(-1.01473e-05 3.27103e-05 0)
(-7.77659e-05 0.000222384 0)
(-0.000235692 0.000500584 0)
(-0.000477811 0.000839913 0)
(-0.000803165 0.00121934 0)
(-0.00121268 0.0016219 0)
(-0.00170591 0.00203402 0)
(-0.00228131 0.00244513 0)
(-0.00293654 0.00284703 0)
(-0.00366849 0.00323356 0)
(-0.00447346 0.00360015 0)
(-0.00534724 0.00394353 0)
(-0.00628519 0.00426148 0)
(-0.0072824 0.00455261 0)
(-0.00833376 0.00481617 0)
(-0.00943401 0.0050519 0)
(-0.0105778 0.00525993 0)
(-0.01176 0.00544063 0)
(-0.0129751 0.0055946 0)
(-0.0142179 0.00572256 0)
(-0.0154834 0.00582528 0)
(-0.0167666 0.00590359 0)
(-0.0180625 0.00595832 0)
(-0.0193663 0.00599025 0)
(-0.0206733 0.00600015 0)
(-0.0219791 0.00598871 0)
(-0.0232791 0.00595657 0)
(-0.0245691 0.0059043 0)
(-0.0258447 0.00583239 0)
(-0.0271018 0.0057413 0)
(-0.0283362 0.00563138 0)
(-0.0295441 0.00550296 0)
(-0.0307213 0.00535633 0)
(-0.031864 0.00519171 0)
(-0.0329684 0.00500933 0)
(-0.0340306 0.0048094 0)
(-0.0350469 0.00459213 0)
(-0.0360136 0.00435774 0)
(-0.0369271 0.00410648 0)
(-0.0377838 0.00383864 0)
(-0.0385804 0.00355457 0)
(-0.0393133 0.00325468 0)
(-0.0399794 0.00293945 0)
(-0.0405756 0.00260948 0)
(-0.0410987 0.00226544 0)
(-0.0415461 0.00190811 0)
(-0.0419151 0.00153839 0)
(-0.0422033 0.00115732 0)
(-0.0424085 0.000766054 0)
(-0.0425288 0.000365868 0)
(-0.0425625 -4.18157e-05 0)
(-0.0425084 -0.000455446 0)
(-0.0423656 -0.000873344 0)
(-0.0421332 -0.0012937 0)
(-0.0418113 -0.00171459 0)
(-0.0413999 -0.00213398 0)
(-0.0408996 -0.00254973 0)
(-0.0403115 -0.00295961 0)
(-0.0396372 -0.00336133 0)
(-0.0388786 -0.00375252 0)
(-0.0380382 -0.00413079 0)
(-0.0371189 -0.00449374 0)
(-0.0361242 -0.00483894 0)
(-0.035058 -0.00516401 0)
(-0.0339248 -0.00546661 0)
(-0.0327293 -0.00574447 0)
(-0.0314769 -0.00599542 0)
(-0.0301733 -0.00621742 0)
(-0.0288247 -0.00640857 0)
(-0.0274375 -0.00656714 0)
(-0.0260186 -0.00669158 0)
(-0.024575 -0.0067806 0)
(-0.0231142 -0.0068331 0)
(-0.0216436 -0.00684828 0)
(-0.020171 -0.00682558 0)
(-0.0187041 -0.00676476 0)
(-0.0172507 -0.00666588 0)
(-0.0158184 -0.00652931 0)
(-0.014415 -0.00635577 0)
(-0.0130478 -0.0061463 0)
(-0.0117241 -0.00590232 0)
(-0.0104507 -0.0056256 0)
(-0.00923395 -0.00531826 0)
(-0.00807995 -0.00498284 0)
(-0.0069941 -0.00462224 0)
(-0.00598117 -0.00423981 0)
(-0.00504527 -0.00383932 0)
(-0.00418969 -0.00342504 0)
(-0.00341687 -0.00300174 0)
(-0.00272832 -0.00257477 0)
(-0.00212452 -0.00215014 0)
(-0.00160487 -0.00173461 0)
(-0.00116761 -0.0013358 0)
(-0.000809767 -0.000962308 0)
(-0.000527098 -0.00062391 0)
(-0.000314039 -0.000331744 0)
(-0.000163639 -9.85588e-05 0)
(-6.746e-05 6.10654e-05 0)
(-1.61282e-05 0.000130395 0)
(-2.38975e-07 8.89708e-05 0)
(-1.31069e-05 7.62561e-05 0)
(-9.64292e-05 0.000353567 0)
(-0.000287069 0.000720207 0)
(-0.000574654 0.0011485 0)
(-0.000955749 0.00161682 0)
(-0.00142986 0.00210745 0)
(-0.00199533 0.00260606 0)
(-0.0026496 0.00310128 0)
(-0.00338949 0.00358424 0)
(-0.00421124 0.00404813 0)
(-0.00511059 0.00448786 0)
(-0.00608286 0.00489976 0)
(-0.00712299 0.00528128 0)
(-0.00822572 0.00563078 0)
(-0.00938556 0.00594736 0)
(-0.0105969 0.00623066 0)
(-0.0118542 0.00648078 0)
(-0.0131518 0.00669812 0)
(-0.014484 0.00688331 0)
(-0.0158454 0.00703714 0)
(-0.0172305 0.0071605 0)
(-0.0186339 0.00725431 0)
(-0.0200504 0.00731952 0)
(-0.0214749 0.00735703 0)
(-0.0229024 0.00736771 0)
(-0.024328 0.00735239 0)
(-0.0257469 0.00731178 0)
(-0.0271544 0.00724657 0)
(-0.028546 0.00715734 0)
(-0.0299171 0.00704462 0)
(-0.0312634 0.00690883 0)
(-0.0325804 0.00675039 0)
(-0.0338639 0.00656962 0)
(-0.0351096 0.00636682 0)
(-0.0363134 0.00614228 0)
(-0.0374712 0.00589625 0)
(-0.0385789 0.00562901 0)
(-0.0396326 0.00534084 0)
(-0.0406282 0.00503207 0)
(-0.0415621 0.00470306 0)
(-0.0424304 0.00435427 0)
(-0.0432294 0.00398621 0)
(-0.0439558 0.00359949 0)
(-0.0446061 0.00319484 0)
(-0.045177 0.00277311 0)
(-0.0456657 0.00233526 0)
(-0.0460691 0.00188241 0)
(-0.0463848 0.00141582 0)
(-0.0466103 0.000936911 0)
(-0.0467437 0.000447248 0)
(-0.0467832 -5.14355e-05 0)
(-0.0467273 -0.000557251 0)
(-0.0465751 -0.00106815 0)
(-0.0463258 -0.00158195 0)
(-0.0459792 -0.00209629 0)
(-0.0455355 -0.00260872 0)
(-0.0449954 -0.00311665 0)
(-0.04436 -0.00361737 0)
(-0.0436308 -0.00410811 0)
(-0.0428101 -0.00458601 0)
(-0.0419004 -0.00504819 0)
(-0.040905 -0.00549171 0)
(-0.0398274 -0.00591368 0)
(-0.0386719 -0.00631119 0)
(-0.0374432 -0.00668144 0)
(-0.0361465 -0.00702167 0)
(-0.0347875 -0.00732927 0)
(-0.0333723 -0.00760177 0)
(-0.0319074 -0.00783687 0)
(-0.0303999 -0.00803248 0)
(-0.028857 -0.00818675 0)
(-0.0272864 -0.00829809 0)
(-0.0256959 -0.00836519 0)
(-0.0240937 -0.00838706 0)
(-0.0224879 -0.00836305 0)
(-0.020887 -0.00829286 0)
(-0.0192992 -0.00817656 0)
(-0.0177329 -0.0080146 0)
(-0.0161963 -0.00780785 0)
(-0.0146974 -0.00755759 0)
(-0.0132439 -0.00726553 0)
(-0.0118431 -0.00693379 0)
(-0.0105022 -0.00656498 0)
(-0.00922748 -0.00616215 0)
(-0.00802491 -0.00572881 0)
(-0.0068997 -0.005269 0)
(-0.00585632 -0.00478726 0)
(-0.00489844 -0.00428868 0)
(-0.00402882 -0.00377897 0)
(-0.00324928 -0.00326447 0)
(-0.00256058 -0.00275225 0)
(-0.00196237 -0.00225019 0)
(-0.00145318 -0.00176709 0)
(-0.0010303 -0.00131279 0)
(-0.000689823 -0.000898343 0)
(-0.00042657 -0.000536178 0)
(-0.000234052 -0.000240351 0)
(-0.000104373 -2.67387e-05 0)
(-2.94127e-05 8.66884e-05 0)
(-2.32785e-06 7.83521e-05 0)
(-1.59428e-05 0.000129206 0)
(-0.000114617 0.000510165 0)
(-0.00033753 0.000978812 0)
(-0.000670227 0.00150756 0)
(-0.00110686 0.00207452 0)
(-0.00164549 0.00266154 0)
(-0.00228321 0.00325376 0)
(-0.00301633 0.00383928 0)
(-0.00384081 0.00440868 0)
(-0.00475214 0.00495468 0)
(-0.00574546 0.00547178 0)
(-0.00681554 0.00595594 0)
(-0.0079569 0.00640436 0)
(-0.00916385 0.0068152 0)
(-0.0104306 0.00718742 0)
(-0.0117512 0.0075206 0)
(-0.0131196 0.0078148 0)
(-0.0145301 0.00807045 0)
(-0.0159766 0.00828823 0)
(-0.0174534 0.008469 0)
(-0.0189546 0.00861375 0)
(-0.0204747 0.00872352 0)
(-0.0220081 0.00879934 0)
(-0.0235494 0.00884225 0)
(-0.0250934 0.00885323 0)
(-0.0266347 0.00883321 0)
(-0.0281684 0.00878302 0)
(-0.0296894 0.00870343 0)
(-0.0311929 0.00859512 0)
(-0.0326741 0.00845869 0)
(-0.0341282 0.00829466 0)
(-0.0355506 0.00810348 0)
(-0.0369367 0.00788557 0)
(-0.0382819 0.00764129 0)
(-0.0395819 0.00737096 0)
(-0.0408321 0.00707492 0)
(-0.0420284 0.0067535 0)
(-0.0431663 0.00640706 0)
(-0.0442418 0.00603599 0)
(-0.0452507 0.00564077 0)
(-0.0461889 0.00522194 0)
(-0.0470527 0.00478013 0)
(-0.0478382 0.0043161 0)
(-0.0485419 0.00383073 0)
(-0.0491602 0.00332503 0)
(-0.04969 0.00280018 0)
(-0.0501283 0.00225752 0)
(-0.0504721 0.00169857 0)
(-0.0507191 0.00112502 0)
(-0.050867 0.000538737 0)
(-0.050914 -5.82006e-05 0)
(-0.0508585 -0.000663546 0)
(-0.0506994 -0.00127487 0)
(-0.0504359 -0.00188955 0)
(-0.0500678 -0.00250483 0)
(-0.0495953 -0.00311776 0)
(-0.049019 -0.00372528 0)
(-0.0483401 -0.00432419 0)
(-0.0475603 -0.0049112 0)
(-0.0466818 -0.00548292 0)
(-0.0457074 -0.00603593 0)
(-0.0446404 -0.00656677 0)