/*--------------------------------*- C++ -*----------------------------------*\
| =========                 |                                                 |
| \\      /  F ield         | OpenFOAM: The Open Source CFD Toolbox           |
|  \\    /   O peration     | Version:  2512                                  |
|   \\  /    A nd           | Website:  www.openfoam.com                      |
|    \\/     M anipulation  |                                                 |
\*---------------------------------------------------------------------------*/
FoamFile
{
    version     2.0;
    format      ascii;
    arch        "LSB;label=32;scalar=64";
    class       volScalarField;
    location    "0.3";
    object      p;
}
// * * * * * * * * * * * * * * * * * * * * * * * * * * * * * * * * * * * * * //

dimensions      [0 2 -2 0 0 0 0];

internalField   nonuniform List<scalar> 
10000
(
3.75799e-09
5.70506e-06
-1.50285e-05
-6.48046e-05
-0.00013835
-0.000229381
-0.000332322
-0.000442269
-0.000555125
-0.000667494
-0.000776553
-0.00087999
-0.000975935
-0.00106288
-0.00113958
-0.00120507
-0.0012586
-0.00129958
-0.00132753
-0.00134211
-0.00134309
-0.00133033
-0.00130376
-0.00126336
-0.00120911
-0.00114106
-0.00105932
-0.000964016
-0.000855268
-0.000733211
-0.000598002
-0.000449829
-0.000288899
-0.000115443
7.02912e-05
0.000268034
0.00047749
0.000698317
0.000930135
0.00117253
0.00142506
0.00168724
0.00195854
0.00223835
0.00252599
0.00282077
0.00312192
0.00342865
0.00374009
0.00405531
0.00437333
0.00469308
0.00501349
0.00533341
0.00565169
0.00596711
0.00627846
0.00658446
0.00688385
0.00717534
0.00745765
0.00772953
0.00798974
0.00823708
0.00847043
0.00868871
0.0088909
0.00907608
0.00924342
0.00939219
0.00952179
0.00963173
0.00972169
0.00979149
0.00984108
0.00987061
0.00988036
0.00987078
0.00984249
0.00979626
0.00973306
0.009654
0.00956039
0.00945371
0.00933562
0.00920794
0.00907267
0.008932
0.00878828
0.00864404
0.00850203
0.00836516
0.00823662
0.00811976
0.00801814
0.00793541
0.007875
0.00783969
0.00783107
0.00784351
3.50101e-06
9.13685e-06
-1.00957e-05
-5.30901e-05
-0.00011501
-0.000191589
-0.000278649
-0.000372276
-0.000469005
-0.000565851
-0.000660277
-0.000750138
-0.000833653
-0.000909341
-0.000975968
-0.00103255
-0.0010783
-0.0011126
-0.00113494
-0.00114491
-0.00114223
-0.00112673
-0.00109827
-0.00105678
-0.00100223
-0.000934644
-0.000854092
-0.000760657
-0.000654428
-0.00053552
-0.000404085
-0.000260305
-0.000104376
6.34881e-05
0.000243056
0.000434064
0.000636216
0.000849172
0.00107256
0.00130597
0.00154898
0.00180111
0.00206184
0.00233057
0.00260665
0.00288939
0.00317808
0.00347193
0.00377012
0.00407176
0.0043759
0.00468154
0.00498764
0.00529313
0.0055969
0.00589783
0.00619475
0.00648648
0.00677182
0.00704958
0.00731855
0.00757757
0.00782548
0.00806118
0.00828363
0.00849183
0.00868485
0.00886184
0.00902205
0.00916481
0.00928957
0.00939593
0.00948359
0.00955242
0.00960242
0.00963373
0.00964665
0.00964164
0.0096193
0.00958038
0.0095258
0.00945665
0.00937416
0.00927976
0.00917501
0.00906162
0.00894149
0.00881664
0.00868927
0.0085617
0.00843642
0.00831605
0.00820336
0.00810121
0.0080125
0.00794008
0.00788639
0.00785332
0.00784341
0.0078559
3.77409e-05
3.92585e-05
1.83254e-05
-2.23432e-05
-7.84779e-05
-0.000146773
-0.00022401
-0.000306976
-0.000392726
-0.000478669
-0.000562541
-0.0006424
-0.000716588
-0.000783693
-0.000842535
-0.000892154
-0.000931766
-0.000960729
-0.000978517
-0.000984725
-0.000979056
-0.000961283
-0.000931238
-0.000888817
-0.000833984
-0.00076675
-0.000687158
-0.000595258
-0.000491111
-0.000374819
-0.000246529
-0.000106413
4.53443e-05
0.000208545
0.000382971
0.000568365
0.000764431
0.000970837
0.00118722
0.00141318
0.00164832
0.00189217
0.0021442
0.00240383
0.00267044
0.00294335
0.00322187
0.00350527
0.00379274
0.00408342
0.00437639
0.00467068
0.00496531
0.00525926
0.00555147
0.00584087
0.00612635
0.00640679
0.00668103
0.00694796
0.00720643
0.00745533
0.00769359
0.00792017
0.00813408
0.00833439
0.00852023
0.00869082
0.00884544
0.00898347
0.00910443
0.00920794
0.00929374
0.00936173
0.00941193
0.0094445
0.00945975
0.00945812
0.00944019
0.00940672
0.00935859
0.00929683
0.00922265
0.00913739
0.00904255
0.00893975
0.00883077
0.00871753
0.00860205
0.00848649
0.00837312
0.00826431
0.00816251
0.00807021
0.00798992
0.00792401
0.00787448
0.00784305
0.00783333
0.00784736
0.000100458
9.26974e-05
6.66857e-05
2.47351e-05
-2.98346e-05
-9.43481e-05
-0.000166127
-0.000242513
-0.000321029
-0.000399425
-0.000475715
-0.000548166
-0.000615265
-0.000675705
-0.0007284
-0.000772451
-0.000807086
-0.00083166
-0.000845666
-0.000848716
-0.000840511
-0.000820799
-0.000789391
-0.00074617
-0.000691095
-0.000624166
-0.000545403
-0.000454832
-0.000352501
-0.000238503
-0.000112979
2.39133e-05
0.00017201
0.000331125
0.000501045
0.000681516
0.000872252
0.00107293
0.00128321
0.00150271
0.00173102
0.0019677
0.00221223
0.00246404
0.00272253
0.00298705
0.00325693
0.00353146
0.00380987
0.0040913
0.00437489
0.00465969
0.00494475
0.0052291
0.00551173
0.00579161
0.00606766
0.00633881
0.00660397
0.00686203
0.00711192
0.00735259
0.007583
0.00780217
0.00800916
0.00820308
0.00838311
0.00854849
0.00869857
0.00883275
0.00895059
0.00905173
0.00913595
0.00920316
0.00925339
0.00928682
0.00930376
0.00930463
0.00929002
0.00926064
0.00921737
0.0091612
0.00909328
0.0090149
0.00892749
0.0088326
0.00873191
0.00862722
0.00852041
0.00841348
0.00830853
0.00820771
0.00811323
0.00802729
0.00795212
0.00788984
0.00784225
0.00781106
0.00780021
0.00781254
0.000184758
0.000163859
0.000130082
8.44848e-05
2.89108e-05
-3.4391e-05
-0.000103183
-0.0001753
-0.000248679
-0.00032141
-0.000391785
-0.000458269
-0.000519506
-0.000574333
-0.000621769
-0.000660973
-0.000691223
-0.000711904
-0.000722534
-0.000722744
-0.000712233
-0.000690744
-0.000658088
-0.000614154
-0.000558893
-0.000492283
-0.000414322
-0.000325024
-0.000224431
-0.000112638
1.02285e-05
0.00014403
0.000288624
0.000443838
0.000609455
0.00078523
0.000970887
0.00116613
0.00137062
0.00158399
0.00180586
0.00203579
0.00227327
0.00251776
0.00276866
0.00302536
0.00328722
0.00355355
0.00382359
0.00409652
0.0043715
0.00464762
0.00492396
0.00519959
0.00547354
0.00574481
0.00601236
0.00627517
0.00653216
0.00678229
0.00702453
0.00725785
0.00748128
0.00769386
0.00789471
0.00808296
0.00825782
0.00841858
0.0085646
0.00869535
0.00881037
0.00890936
0.0089921
0.00905852
0.00910866
0.00914271
0.00916095
0.00916383
0.00915191
0.00912589
0.00908659
0.009035
0.00897222
0.00889948
0.00881814
0.00872969
0.00863569
0.00853784
0.0084379
0.00833772
0.00823923
0.00814438
0.00805516
0.00797356
0.00790154
0.007841
0.00779361
0.00776099
0.00774665
0.00775318
0.00028549
0.000248843
0.000205192
0.000154007
9.53755e-05
3.11684e-05
-3.67288e-05
-0.000106571
-0.000176669
-0.000245436
-0.000311414
-0.000373271
-0.000429835
-0.000480089
-0.000523151
-0.000558247
-0.00058472
-0.000602023
-0.000609716
-0.000607441
-0.00059489
-0.000571822
-0.000538068
-0.000493531
-0.000438152
-0.000371887
-0.000294718
-0.000206653
-0.000107736
1.94401e-06
0.000122271
0.00025313
0.000394393
0.000545898
0.000707433
0.000878758
0.00105962
0.00124972
0.00144877
0.00165641
0.00187225
0.00209587
0.00232679
0.00256447
0.00280835
0.00305785
0.00331234
0.00357115
0.00383356
0.00409876
0.00436592
0.00463419
0.00490268
0.00517049
0.00543667
0.00570027
0.00596027
0.00621567
0.00646545
0.00670859
0.00694409
0.00717096
0.00738827
0.0075951
0.00779057
0.00797387
0.00814422
0.00830094
0.00844342
0.00857113
0.00868366
0.00878071
0.00886209
0.00892772
0.00897766
0.00901208
0.00903128
0.00903569
0.00902586
0.00900246
0.0089663
0.00891832
0.00885959
0.00879129
0.00871471
0.00863126
0.00854243
0.0084498
0.00835503
0.00825983
0.00816597
0.00807522
0.00798939
0.00791026
0.00783958
0.00777903
0.00773014
0.00769442
0.00767448
0.00767207
0.000397879
0.000344007
0.000288981
0.000230646
0.000167269
0.000100384
3.15948e-05
-3.77137e-05
-0.000106196
-0.000172543
-0.000235521
-0.000294019
-0.00034705
-0.000393736
-0.000433294
-0.000465029
-0.000488367
-0.000502838
-0.000508047
-0.00050365
-0.000489357
-0.000464949
-0.000430285
-0.000385277
-0.000329859
-0.000263972
-0.000187592
-0.00010073
-3.43168e-06
0.000104224
0.000222139
0.000350215
0.000488335
0.00063634
0.000794031
0.000961177
0.00113754
0.00132286
0.00151683
0.00171914
0.0019294
0.00214721
0.00237208
0.00260352
0.00284099
0.00308393
0.00333174
0.00358377
0.0038393
0.00409757
0.00435776
0.00461905
0.00488059
0.0051415
0.00540086
0.00565775
0.00591117
0.00616015
0.00640368
0.00664078
0.00687048
0.00709184
0.00730391
0.00750583
0.00769672
0.0078758
0.00804231
0.00819559
0.00833503
0.00846014
0.00857051
0.00866586
0.008746
0.00881086
0.00886049
0.00889508
0.00891491
0.00892039
0.00891206
0.00889058
0.00885673
0.00881143
0.00875568
0.00869064
0.00861755
0.00853772
0.00845259
0.00836363
0.00827239
0.00818048
0.00808951
0.00800111
0.00791692
0.00783853
0.00776751
0.00770533
0.00765341
0.00761309
0.00758586
0.00757238
0.000517651
0.000445821
0.000378455
0.000311821
0.000242392
0.000171436
0.00010032
3.01061e-05
-3.8147e-05
-0.000103377
-0.000164582
-0.000220852
-0.000271368
-0.000315385
-0.000352227
-0.000381303
-0.000402129
-0.0004143
-0.000417457
-0.00041129
-0.000395551
-0.000370053
-0.000334681
-0.000289349
-0.000233981
-0.000168518
-9.29417e-05
-7.26933e-06
8.84536e-05
0.000194163
0.000309779
0.000435219
0.000570369
0.000715075
0.000869146
0.00103237
0.00120453
0.00138539
0.00157467
0.00177204
0.00197715
0.00218959
0.00240892
0.00263467
0.00286632
0.00310333
0.00334512
0.00359106
0.00384045
0.00409255
0.00434658
0.00460173
0.00485717
0.00511207
0.00536552
0.00561661
0.00586438
0.00610785
0.00634606
0.00657804
0.00680285
0.00701955
0.00722724
0.00742505
0.00761213
0.00778769
0.007951
0.0081014
0.00823831
0.00836124
0.00846978
0.00856366
0.00864269
0.00870682
0.00875608
0.00879064
0.0088108
0.00881694
0.00880959
0.00878939
0.0087571
0.0087136
0.00865988
0.00859704
0.00852625
0.00844879
0.00836601
0.0082793
0.00819013
0.00809998
0.00801034
0.00792272
0.00783861
0.00775944
0.00768659
0.00762139
0.0075651
0.00751894
0.00748317
0.00745729
0.00064107
0.000551076
0.000470825
0.000395088
0.000318637
0.000242535
0.000167946
9.56657e-05
2.65071e-05
-3.87064e-05
-9.91928e-05
-0.000154224
-0.000203121
-0.000245267
-0.000280111
-0.00030718
-0.000326074
-0.000336439
-0.000337958
-0.000330373
-0.000313487
-0.000287155
-0.000251276
-0.000205766
-0.000150548
-8.55715e-05
-1.08311e-05
7.36493e-05
0.000167831
0.000271664
0.000385086
0.000508019
0.000640357
0.000781947
0.000932613
0.00109217
0.00126041
0.00143712
0.00162204
0.00181486
0.00201523
0.00222276
0.00243704
0.00265761
0.002884
0.00311568
0.00335209
0.00359261
0.00383657
0.00408323
0.00433186
0.00458166
0.00483185
0.00508158
0.00532998
0.00557615
0.00581914
0.006058
0.00629177
0.00651951
0.00674028
0.00695317
0.00715729
0.00735176
0.00753575
0.00770848
0.00786921
0.0080173
0.00815216
0.00827331
0.00838036
0.00847302
0.0085511
0.00861454
0.00866337
0.00869777
0.00871799
0.00872443
0.00871759
0.00869809
0.00866669
0.00862421
0.00857164
0.00851001
0.00844046
0.00836423
0.00828257
0.00819684
0.0081084
0.00801864
0.00792895
0.00784071
0.00775529
0.007674
0.00759805
0.00752861
0.00746685
0.00741386
0.00736866
0.00732963
0.000764962
0.000656921
0.000563527
0.000478168
0.000394002
0.000311927
0.000232973
0.000157703
8.67009e-05
2.05719e-05
-4.00956e-05
-9.47295e-05
-0.000142787
-0.00018378
-0.000217291
-0.000242953
-0.000260438
-0.000269449
-0.000269727
-0.000261074
-0.000243345
-0.000216432
-0.000180243
-0.0001347
-7.97383e-05
-1.53255e-05
5.85306e-05
0.000141806
0.000234472
0.000336493
0.000447814
0.000568359
0.000698025
0.000836671
0.000984137
0.00114026
0.00130486
0.00147773
0.00165863
0.00184726
0.00204328
0.00224633
0.00245603
0.00267194
0.00289362
0.00312055
0.00335219
0.00358793
0.00382713
0.00406908
0.00431305
0.00455828
0.00480399
0.00504937
0.00529356
0.00553565
0.00577471
0.00600981
0.00624
0.00646434
0.00668191
0.0068918
0.00709313
0.00728502
0.00746664
0.0076372
0.00779597
0.0079423
0.0080756
0.00819539
0.00830128
0.00839297
0.00847027
0.0085331
0.0085815
0.00861561
0.00863568
0.0086421
0.00863536
0.00861606
0.00858491
0.00854276
0.00849052
0.00842922
0.00835995
0.00828389
0.00820226
0.00811634
0.00802742
0.0079368
0.0078458
0.00775571
0.00766776
0.00758315
0.00750299
0.00742829
0.00736015
0.00729956
0.00724436
0.00719183
0.00088662
0.000760826
0.000654238
0.000558945
0.00046658
0.000377934
0.000293941
0.000214946
0.000141323
7.34969e-05
1.18993e-05
-4.30451e-05
-9.09381e-05
-0.000131428
-0.000164209
-0.000189003
-0.00020555
-0.000213624
-0.000213039
-0.000203659
-0.000185385
-0.000158133
-0.000121823
-7.63948e-05
-2.1807e-05
4.19534e-05
0.000114869
0.000196921
0.000288092
0.000388355
0.000497655
0.000615917
0.00074304
0.000878902
0.00102336
0.00117628
0.0013375
0.00150683
0.00168403
0.00186881
0.00206086
0.00225986
0.00246543
0.00267719
0.00289468
0.00311742
0.00334488
0.00357647
0.00381157
0.00404948
0.00428951
0.00453092
0.00477293
0.00501475
0.00525553
0.00549436
0.00573032
0.00596248
0.00618991
0.00641168
0.00662686
0.00683456
0.00703386
0.00722391
0.00740385
0.0075729
0.00773032
0.00787543
0.00800767
0.00812653
0.00823161
0.00832261
0.00839932
0.00846165
0.00850963
0.00854337
0.00856314
0.00856927
0.00856226
0.0085427
0.00851127
0.0084688
0.00841618
0.00835439
0.00828452
0.00820768
0.00812507
0.00803789
0.00794739
0.00785481
0.00776137
0.00766829
0.00757673
0.00748778
0.00740244
0.0073216
0.00724634
0.00717758
0.00711201
0.00704592
0.00100369
0.000860548
0.000740847
0.00063546
0.000534591
0.000438962
0.000349418
0.000266112
0.000189243
0.000119089
5.59433e-05
8.43994e-08
-4.82371e-05
-8.87935e-05
-0.000121372
-0.000145771
-0.00016181
-0.000169341
-0.000168255
-0.000158471
-0.00013993
-0.000112564
-7.63183e-05
-3.11594e-05
2.29279e-05
8.59404e-05
0.000157858
0.000238665
0.000328356
0.000426901
0.000534245
0.000650313
0.000775015
0.000908247
0.00104989
0.00119983
0.00135792
0.00152397
0.00169777
0.00187904
0.0020675
0.00226285
0.00246475
0.00267281
0.00288663
0.00310572
0.00332957
0.00355761
0.00378924
0.00402379
0.00426058
0.00449888
0.00473795
0.00497697
0.00521511
0.00545147
0.00568513
0.00591517
0.00614065
0.00636065
0.00657424
0.00678051
0.00697856
0.00716749
0.00734645
0.00751464
0.00767131
0.00781577
0.00794745
0.00806581
0.00817046
0.00826106
0.0083374
0.00839938
0.00844698
0.00848033
0.00849965
0.00850529
0.00849771
0.00847748
0.00844529
0.00840193
0.00834826
0.00828527
0.00821399
0.00813552
0.008051
0.0079616
0.00786853
0.00777296
0.00767607
0.00757901
0.00748285
0.00738864
0.00729729
0.00720959
0.0071266
0.00704922
0.00697308
0.00689354
0.0011141
0.000954075
0.000821439
0.000705929
0.000596391
0.000493486
0.000398001
0.000309937
0.000229341
0.000156361
9.11528e-05
3.38536e-05
-1.54133e-05
-5.65233e-05
-8.93481e-05
-0.00011377
-0.000129692
-0.000137052
-0.000135806
-0.00012592
-0.000107364
-8.00984e-05
-4.41003e-05
6.30847e-07
5.4087e-05
0.000116254
0.000187114
0.000266657
0.000354871
0.000451726
0.000557165
0.000671117
0.00079351
0.000924257
0.00106326
0.00121043
0.00136562
0.00152866
0.00169934
0.00187743
0.00206266
0.00225474
0.00245339
0.00265823
0.00286885
0.00308481
0.0033056
0.00353068
0.00375946
0.0039913
0.00422552
0.00446142
0.00469825
0.00493522
0.00517148
0.00540614
0.00563829
0.00586699
0.00609132
0.00631034
0.00652312
0.00672873
0.00692627
0.00711481
0.00729348
0.00746147
0.00761801
0.00776239
0.00789402
0.00801235
0.00811695
0.00820749
0.00828371
0.0083455
0.00839282
0.00842578
0.00844458
0.00844955
0.00844115
0.00841992
0.00838654
0.00834178
0.0082865
0.00822164
0.00814823
0.00806734
0.00798007
0.00788758
0.00779102
0.00769155
0.00759028
0.00748832
0.00738672
0.00728643
0.00718832
0.00709313
0.00700192
0.00691558
0.00682877
0.00673595
0.00121603
0.00103962
0.00089429
0.000768708
0.000650427
0.000540049
0.000438343
0.000345192
0.00026051
0.000184306
0.000116603
5.7417e-05
6.77069e-06
-3.53017e-05
-6.8761e-05
-9.35799e-05
-0.00010975
-0.000117281
-0.000116185
-0.000106468
-8.81299e-05
-6.11703e-05
-2.56044e-05
1.85395e-05
7.12357e-05
0.000132464
0.000202207
0.000280454
0.000367186
0.000462367
0.00056594
0.000677847
0.000798033
0.000926432
0.00106297
0.00120755
0.00136005
0.00152032
0.00168817
0.00186338
0.00204571
0.00223492
0.00243072
0.00263277
0.00284068
0.003054
0.00327227
0.00349495
0.00372146
0.00395121
0.00418352
0.0044177
0.004653
0.00488864
0.00512375
0.00535747
0.00558887
0.00581701
0.00604096
0.00625978
0.00647253
0.00667826
0.00687602
0.0070649
0.00724399
0.00741244
0.00756947
0.00771437
0.00784648
0.00796526
0.00807024
0.00816106
0.00823746
0.00829926
0.00834644
0.00837906
0.00839731
0.00840151
0.00839208
0.00836957
0.00833464
0.00828804
0.00823061
0.0081633
0.00808711
0.00800307
0.0079123
0.00781592
0.00771505
0.00761083
0.00750434
0.00739667
0.00728882
0.00718173
0.00707622
0.00697298
0.00687312
0.00677756
0.00668002
0.00657415
0.00130786
0.00111557
0.000957825
0.000822262
0.000695218
0.00057727
0.000469169
0.000370697
0.000281646
0.000201892
0.000131337
6.9903e-05
1.75249e-05
-2.58544e-05
-6.02905e-05
-8.58468e-05
-0.000102596
-0.000110607
-0.000109937
-0.000100632
-8.2732e-05
-5.6281e-05
-2.1328e-05
2.20746e-05
7.38875e-05
0.000134087
0.000202652
0.000279564
0.000364795
0.000458305
0.000560044
0.000669969
0.000788042
0.000914216
0.00104843
0.0011906
0.00134062
0.00149835
0.00166361
0.00183623
0.002016
0.00220269
0.00239604
0.00259572
0.00280135
0.00301253
0.00322877
0.00344959
0.00367443
0.00390269
0.00413372
0.00436684
0.00460129
0.00483629
0.00507099
0.0053045
0.0055359
0.00576425
0.0059886
0.006208
0.00642148
0.00662808
0.00682683
0.00701677
0.00719698
0.00736658
0.00752476
0.00767076
0.00780393
0.00792367
0.00802948
0.00812098
0.00819787
0.00825995
0.00830716
0.00833954
0.00835726
0.00836062
0.00835002
0.00832601
0.00828922
0.00824039
0.00818038
0.00811008
0.0080305
0.00794269
0.00784772
0.0077467
0.00764076
0.00753102
0.00741855
0.00730441
0.0071896
0.00707504
0.00696153
0.00684975
0.00674086
0.00663584
0.00652753
0.00640882
0.00138814
0.00118044
0.00101057
0.000865151
0.000729383
0.000603841
0.000489254
0.000385297
0.000291649
0.00020808
0.000134397
7.04322e-05
1.60335e-05
-2.89513e-05
-6.46719e-05
-9.12731e-05
-0.000108894
-0.000117654
-0.000117654
-0.000108985
-9.17345e-05
-6.59864e-05
-3.18211e-05
1.06917e-05
6.15059e-05
0.000120589
0.00018791
0.000263436
0.000347136
0.000438972
0.000538901
0.000646897
0.000762942
0.000887003
0.00101903
0.00115894
0.00130666
0.00146205
0.00162498
0.00179529
0.0019728
0.00215731
0.00234858
0.00254628
0.00275007
0.00295954
0.00317426
0.00339375
0.00361746
0.00384482
0.00407519
0.00430788
0.00454215
0.0047772
0.00501218
0.00524621
0.00547835
0.00570766
0.00593318
0.00615393
0.00636892
0.00657716
0.00677765
0.0069694
0.00715145
0.0073229
0.00748289
0.00763064
0.00776545
0.00788669
0.00799383
0.00808644
0.00816419
0.00822684
0.0082743
0.00830659
0.00832386
0.00832637
0.00831452
0.00828884
0.00824994
0.00819857
0.00813555
0.00806181
0.00797832
0.00788613
0.00778632
0.00768001
0.0075683
0.00745232
0.00733315
0.00721184
0.0070894
0.00696675
0.00684469
0.00672392
0.00660564
0.00649093
0.00637182
0.00624043
0.00145551
0.00123287
0.00105116
0.000896049
0.000751645
0.000618527
0.000497406
0.000387845
0.000289431
0.000201853
0.000124835
5.81171e-05
1.45221e-06
-4.54037e-05
-8.26826e-05
-0.000110597
-0.000129342
-0.000139085
-0.000139974
-0.000132152
-0.000115753
-9.08952e-05
-5.76801e-05
-1.61929e-05
3.35096e-05
9.13836e-05
0.000157384
0.000231468
0.000313599
0.000403745
0.000501881
0.000607995
0.000722083
0.000844123
0.000974071
0.00111187
0.00125744
0.00141069
0.00157152
0.00173977
0.00191532
0.00209797
0.00228749
0.00248359
0.00268593
0.00289415
0.00310781
0.00332646
0.00354958
0.0037766
0.0040069
0.00423978
0.00447451
0.00471027
0.00494624
0.0051815
0.00541512
0.00564615
0.00587359
0.00609646
0.00631373
0.00652439
0.00672738
0.0069217
0.00710635
0.00728037
0.00744287
0.00759303
0.00773011
0.00785344
0.00796244
0.00805663
0.00813565
0.00819922
0.00824722
0.00827962
0.00829656
0.00829827
0.00828514
0.00825767
0.00821647
0.00816229
0.00809593
0.00801833
0.00793045
0.00783336
0.00772813
0.00761589
0.00749776
0.00737488
0.00724834
0.00711921
0.00698851
0.00685718
0.00672605
0.00659583
0.00646782
0.0063432
0.00621319
0.00606924
0.00150873
0.00127159
0.00107833
0.000913725
0.0007608
0.000620141
0.000492457
0.000377221
0.000273935
0.000182218
0.000101706
3.20481e-05
-2.70967e-05
-7.6054e-05
-0.000115126
-0.000144581
-0.000164663
-0.000175595
-0.00017758
-0.000170808
-0.000155451
-0.000131654
-9.95412e-05
-5.92096e-05
-1.07299e-05
4.58371e-05
0.000110431
0.000183004
0.00026352
0.000351959
0.000448309
0.000552575
0.000664759
0.000784849
0.000912814
0.00104861
0.00119218
0.00134347
0.00150239
0.00166884
0.00184268
0.00202375
0.00221185
0.00240669
0.00260798
0.00281534
0.00302839
0.00324668
0.00346972
0.00369695
0.00392774
0.00416141
0.00439722
0.00463436
0.00487198
0.00510918
0.00534501
0.00557849
0.00580863
0.00603439
0.00625473
0.00646859
0.00667488
0.00687254
0.00706055
0.00723789
0.00740363
0.00755691
0.00769693
0.00782297
0.00793441
0.00803071
0.00811147
0.00817637
0.00822523
0.00825801
0.0082748
0.00827582
0.00826143
0.00823212
0.0081885
0.00813129
0.00806131
0.00797949
0.00788681
0.00778432
0.00767314
0.0075544
0.00742925
0.00729883
0.00716428
0.0070267
0.00688713
0.00674657
0.00660585
0.00646573
0.00632765
0.00619284
0.00605182
0.00589533
0.00154668
0.00129542
0.00109091
0.000916999
0.000755675
0.000607529
0.000473287
0.000352351
0.00024414
0.000148192
6.40589e-05
-8.70189e-06
-7.05124e-05
-0.000121766
-0.000162822
-0.000194003
-0.00021561
-0.000227924
-0.000231196
-0.000225661
-0.000211523
-0.000188949
-0.000158079
-0.000119028
-7.18879e-05
-1.67357e-05
4.63585e-05
0.000117345
0.000196195
0.000282899
0.00037746
0.000479892
0.000590205
0.000708397
0.00083445
0.000968339
0.00111004
0.00125952
0.00141672
0.00158156
0.00175394
0.0019337
0.00212066
0.00231457
0.00251514
0.00272204
0.00293489
0.00315328
0.00337673
0.00360468
0.00383651
0.00407154
0.00430903
0.00454818
0.00478812
0.00502796
0.00526672
0.00550341
0.005737
0.00596644
0.00619064
0.0064085
0.00661889
0.0068207
0.00701286
0.00719431
0.00736407
0.00752121
0.00766488
0.00779431
0.00790882
0.00800782
0.00809084
0.00815752
0.00820765
0.00824113
0.00825802
0.00825852
0.00824297
0.00821183
0.00816571
0.00810532
0.00803149
0.00794514
0.00784728
0.00773897
0.00762135
0.00749557
0.00736281
0.00722427
0.00708111
0.00693447
0.00678545
0.00663507
0.00648425
0.00633379
0.00618523
0.00603995
0.00588773
0.00571861
0.0015683
0.00130327
0.00108776
0.000904731
0.000735137
0.000579587
0.00043883
0.000312205
0.000199044
9.87962e-05
1.09297e-05
-6.50729e-05
-0.000129698
-0.000183399
-0.000226594
-0.000259664
-0.000282969
-0.000296841
-0.000301582
-0.000297458
-0.000284699
-0.000263495
-0.000234005
-0.000196365
-0.000150689
-9.70664e-05
-3.55726e-05
3.37461e-05
0.000110871
0.000195802
0.000288554
0.000389148
0.000497601
0.00061392
0.000738109
0.000870168
0.0010101
0.0011579
0.00131354
0.00147695
0.00164807
0.00182675
0.00201284
0.0022061
0.00240628
0.00261306
0.00282611
0.00304503
0.00326933
0.00349849
0.00373188
0.00396882
0.00420858
0.00445035
0.00469328
0.00493643
0.00517884
0.00541948
0.0056573
0.0058912
0.00612007
0.00634274
0.00655806
0.00676486
0.00696201
0.0071484
0.00732299
0.00748479
0.00763288
0.00776643
0.0078847
0.00798704
0.00807292
0.00814192
0.00819377
0.00822834
0.00824566
0.00824588
0.00822931
0.00819642
0.00814779
0.00808412
0.00800627
0.00791514
0.00781177
0.00769725
0.00757273
0.00743942
0.00729852
0.00715129
0.00699892
0.00684263
0.00668356
0.00652281
0.00636135
0.00620006
0.00604061
0.00588452
0.00572083
0.00553891
0.00157255
0.0012941
0.00106782
0.000875833
0.000698113
0.000535272
0.00038807
0.000255779
0.000137646
3.30382e-05
-5.86478e-05
-0.000137994
-0.000205545
-0.000261814
-0.00030728
-0.000342387
-0.000367549
-0.000383148
-0.000389521
-0.000386964
-0.000375733
-0.00035604
-0.000328069
-0.000291979
-0.000247898
-0.000195928
-0.000136142
-6.85793e-05
6.74907e-06
8.98554e-05
0.000180758
0.000279484
0.000386061
0.000500511
0.000622861
0.000753139
0.000891378
0.0010376
0.0011918
0.00135394
0.00152396
0.00170176
0.00188719
0.00208006
0.00228013
0.00248713
0.00270074
0.00292056
0.00314615
0.00337696
0.0036124
0.00385179
0.00409438
0.00433938
0.00458592
0.00483307
0.00507984
0.00532517
0.00556799
0.00580715
0.0060415
0.00626984
0.00649094
0.0067036
0.00690661
0.00709881
0.00727909
0.0074464
0.00759974
0.00773822
0.00786101
0.0079674
0.00805679
0.00812871
0.00818283
0.00821897
0.0082371
0.00823735
0.00822001
0.0081855
0.00813441
0.00806745
0.00798545
0.00788936
0.0077802
0.00765912
0.0075273
0.00738598
0.00723643
0.00707994
0.0069178
0.00675126
0.00658155
0.00640985
0.00623721
0.00606457
0.00589375
0.00572644
0.00555093
0.00535592
0.00155841
0.00126686
0.00103006
0.000829286
0.000643588
0.000473576
0.000320003
0.00018207
5.89519e-05
-5.00563e-05
-0.00014562
-0.000228377
-0.000298936
-0.000357874
-0.000405733
-0.000443015
-0.000470183
-0.000487659
-0.000495812
-0.000494967
-0.000485406
-0.000467367
-0.00044106
-0.000406665
-0.00036432
-0.000314131
-0.000256166
-0.000190457
-0.000117009
-3.58028e-05
5.31844e-05
0.000149986
0.000254644
0.000367202
0.000487713
0.000616233
0.000752824
0.000897532
0.00105038
0.00121135
0.00138041
0.00155748
0.00174244
0.00193513
0.00213536
0.00234285
0.00255733
0.00277841
0.00300567
0.00323856
0.00347651
0.00371883
0.0039648
0.00421361
0.00446439
0.0047162
0.00496802
0.00521879
0.00546738
0.00571262
0.0059533
0.00618816
0.00641593
0.00663535
0.00684514
0.00704408
0.00723097
0.0074047
0.00756419
0.00770845
0.00783661
0.00794785
0.0080415
0.00811703
0.00817404
0.00821229
0.00823171
0.00823239
0.00821458
0.00817868
0.00812527
0.00805504
0.00796885
0.00786764
0.00775248
0.00762454
0.00748503
0.00733527
0.00717657
0.0070103
0.0068378
0.00666043
0.00647948
0.00629623
0.00611181
0.00592725
0.00574456
0.00556555
0.00537779
0.00516927
0.00152494
0.0012206
0.000973503
0.000764128
0.00057059
0.00039351
0.000233634
9.00883e-05
-3.80147e-05
-0.000151436
-0.000250902
-0.000337116
-0.000410753
-0.000472454
-0.00052282
-0.000562404
-0.000591712
-0.000611199
-0.000621268
-0.000622274
-0.000614525
-0.000598291
-0.000573803
-0.000541255
-0.000500793
-0.000452519
-0.000396498
-0.000332756
-0.000261293
-0.000182088
-9.51109e-05
-3.1675e-07
0.000102353
0.000212968
0.000331608
0.000458361
0.000593312
0.000736534
0.000888072
0.00104794
0.00121612
0.00139257
0.00157721
0.0017699
0.00197047
0.00217871
0.00239433
0.00261698
0.00284624
0.0030816
0.00332248
0.0035682
0.00381806
0.00407124
0.00432687
0.00458399
0.00484156
0.0050985
0.00535365
0.00560578
0.00585364
0.00609591
0.00633128
0.0065584
0.00677594
0.00698259
0.00717709
0.00735821
0.00752482
0.00767583
0.00781026
0.00792723
0.00802598
0.0081059
0.00816651
0.00820753
0.00822881
0.0082304
0.00821251
0.00817553
0.00812
0.00804663
0.00795625
0.00784985
0.00772852
0.00759345
0.00744593
0.00728731
0.007119
0.00694241
0.006759
0.00657018
0.00637738
0.00618195
0.00598512
0.00578804
0.00559288
0.00540163
0.00520109
0.00497851
0.00147123
0.00115437
0.000897207
0.000679403
0.000478156
0.000294099
0.000127985
-2.11282e-05
-0.000154188
-0.000272011
-0.000375392
-0.000465103
-0.000541884
-0.000606437
-0.000659415
-0.000701415
-0.000732981
-0.000754603
-0.000766719
-0.000769714
-0.000763929
-0.00074966
-0.000727154
-0.000696613
-0.000658185
-0.00061197
-0.00055803
-0.000496389
-0.000427043
-0.000349968
-0.000265126
-0.000172453
-7.18706e-05
3.67186e-05
0.000153424
0.00027836
0.000411639
0.000553356
0.000703582
0.000862359
0.0010297
0.0012056
0.00139
0.00158282
0.0017839
0.00199307
0.00221005
0.00243453
0.0026661
0.00290426
0.00314844
0.003398
0.00365222
0.0039103
0.00417136
0.00443442
0.00469844
0.00496229
0.00522476
0.00548462
0.00574053
0.00599115
0.00623506
0.00647088
0.00669719
0.00691259
0.00711574
0.00730532
0.00748009
0.00763888
0.0077806
0.00790427
0.00800906
0.00809425
0.0081593
0.00820383
0.00822764
0.00823073
0.00821326
0.00817559
0.00811824
0.00804191
0.00794745
0.00783584
0.00770822
0.00756582
0.00740999
0.00724214
0.00706375
0.00687634
0.00668144
0.00648057
0.00627527
0.00606699
0.00585709
0.00564683
0.00543854
0.00523442
0.00502046
0.00478315
0.0013964
0.00106727
0.000800239
0.000574158
0.000365326
0.00017439
2.11523e-06
-0.0001525
-0.00029047
-0.000412678
-0.000519986
-0.000613234
-0.000693224
-0.000760709
-0.00081639
-0.000860906
-0.00089484
-0.000918717
-0.000933013
-0.000938147
-0.000934488
-0.000922351
-0.000901994
-0.000873624
-0.000837391
-0.000793394
-0.000741692
-0.000682309
-0.000615243
-0.00054046
-0.000457907
-0.0003675
-0.000269136
-0.000162689
-4.80233e-05
7.50033e-05
0.000206528
0.00034667
0.000495529
0.000653179
0.000819671
0.000995028
0.00117924
0.00137225
0.00157394
0.00178416
0.00200268
0.00222919
0.0024633
0.00270455
0.00295238
0.00320616
0.00346519
0.00372866
0.0039957
0.00426532
0.00453645
0.00480792
0.00507852
0.00534694
0.0056118
0.00587169
0.00612516
0.00637071
0.00660685
0.00683211
0.00704504
0.00724421
0.00742829
0.00759598
0.00774611
0.00787758
0.00798945
0.00808091
0.00815133
0.00820024
0.00822738
0.00823266
0.00821622
0.00817836
0.00811959
0.00804058
0.0079422
0.00782545
0.00769149
0.00754161
0.00737721
0.00719978
0.00701089
0.00681214
0.00660518
0.00639164
0.00617317
0.00595135
0.00572766
0.00550348
0.00528134
0.00506363
0.00483552
0.00458267
0.00129958
0.00095841
0.000681678
0.000447465
0.000231176
3.34704e-05
-0.000144872
-0.000304917
-0.000447753
-0.000574332
-0.000685583
-0.000782407
-0.000865661
-0.000936149
-0.000994613
-0.00104174
-0.00107814
-0.0011044
-0.00112102
-0.00112846
-0.00112709
-0.00111726
-0.00109922
-0.0010732
-0.00103933
-0.000997732
-0.000948453
-0.00089152
-0.000826926
-0.000754626
-0.000674547
-0.000586584
-0.000490605
-0.000386458
-0.000273981
-0.000153006
-2.3372e-05
0.00011507
0.000262452
0.000418882
0.000584451
0.00075922
0.000943217
0.00113642
0.00133877