/*--------------------------------*- C++ -*----------------------------------*\
| =========                 |                                                 |
| \\      /  F ield         | OpenFOAM: The Open Source CFD Toolbox           |
|  \\    /   O peration     | Version:  2512                                  |
|   \\  /    A nd           | Website:  www.openfoam.com                      |
|    \\/     M anipulation  |                                                 |
\*---------------------------------------------------------------------------*/
FoamFile
{
    version     2.0;
    format      ascii;
    arch        "LSB;label=32;scalar=64";
    class       surfaceScalarField;
    location    "0.3";
    object      phi;
}
// * * * * * * * * * * * * * * * * * * * * * * * * * * * * * * * * * * * * * //

dimensions      [0 3 -1 0 0 0 0];

oriented        oriented;

internalField   nonuniform List<scalar> 
19800
(
6.66284e-11
-6.66442e-11
1.92983e-10
-1.26355e-10
3.07549e-10
-1.14557e-10
3.66381e-10
-5.88498e-11
3.48386e-10
1.79979e-11
2.44122e-10
1.04262e-10
5.12071e-11
1.92908e-10
-2.28622e-10
2.79831e-10
-5.91316e-10
3.62699e-10
-1.0315e-09
4.40191e-10
-1.54316e-09
5.11662e-10
-2.11995e-09
5.76795e-10
-2.75549e-09
6.35544e-10
-3.44351e-09
6.88026e-10
-4.17794e-09
7.34435e-10
-4.95296e-09
7.75017e-10
-5.76303e-09
8.10068e-10
-6.60293e-09
8.39894e-10
-7.46772e-09
8.64793e-10
-8.35277e-09
8.85047e-10
-9.25373e-09
9.00944e-10
-1.01665e-08
9.12763e-10
-1.10873e-08
9.2075e-10
-1.20124e-08
9.25129e-10
-1.29384e-08
9.26071e-10
-1.38622e-08
9.23751e-10
-1.47805e-08
9.18346e-10
-1.56905e-08
9.09994e-10
-1.65893e-08
8.98792e-10
-1.74742e-08
8.84821e-10
-1.83423e-08
8.68155e-10
-1.91912e-08
8.48853e-10
-2.00181e-08
8.26957e-10
-2.08206e-08
8.025e-10
-2.15961e-08
7.75503e-10
-2.23421e-08
7.45981e-10
-2.30561e-08
7.1394e-10
-2.37354e-08
6.79387e-10
-2.43778e-08
6.42337e-10
-2.49806e-08
6.02806e-10
-2.55414e-08
5.60813e-10
-2.60578e-08
5.16386e-10
-2.65273e-08
4.69558e-10
-2.69477e-08
4.20385e-10
-2.73167e-08
3.6894e-10
-2.7632e-08
3.15308e-10
-2.78916e-08
2.59594e-10
-2.80935e-08
2.01919e-10
-2.82359e-08
1.42425e-10
-2.83172e-08
8.1287e-11
-2.83359e-08
1.86985e-11
-2.82908e-08
-4.51254e-11
-2.81808e-08
-1.09939e-10
-2.80053e-08
-1.7548e-10
-2.77639e-08
-2.41458e-10
-2.74563e-08
-3.07557e-10
-2.70829e-08
-3.73445e-10
-2.66441e-08
-4.38773e-10
-2.61409e-08
-5.0317e-10
-2.55747e-08
-5.6625e-10
-2.49471e-08
-6.27618e-10
-2.42602e-08
-6.8686e-10
-2.35167e-08
-7.43562e-10
-2.27194e-08
-7.97313e-10
-2.18717e-08
-8.47708e-10
-2.09773e-08
-8.94342e-10
-2.00405e-08
-9.36825e-10
-1.90657e-08
-9.7478e-10
-1.80579e-08
-1.00784e-09
-1.70222e-08
-1.03568e-09
-1.59642e-08
-1.05799e-09
-1.48897e-08
-1.07449e-09
-1.38048e-08
-1.08496e-09
-1.27156e-08
-1.08919e-09
-1.16285e-08
-1.08704e-09
-1.05502e-08
-1.07839e-09
-9.48698e-09
-1.06318e-09
-8.44558e-09
-1.0414e-09
-7.43249e-09
-1.01309e-09
-6.45415e-09
-9.7834e-10
-5.51686e-09
-9.37283e-10
-4.62674e-09
-8.90112e-10
-3.78966e-09
-8.3708e-10
-3.01118e-09
-7.78487e-10
-2.29648e-09
-7.14691e-10
-1.65036e-09
-6.46117e-10
-1.07711e-09
-5.73258e-10
-5.80422e-10
-4.9669e-10
-1.63341e-10
-4.17082e-10
1.71905e-10
-3.35243e-10
4.24071e-10
-2.52159e-10
5.9313e-10
-1.69059e-10
6.80726e-10
-8.75978e-11
6.90714e-10
-9.98443e-12
6.30117e-10
6.06072e-11
5.10637e-10
1.19485e-10
3.50934e-10
1.59697e-10
1.80369e-10
1.7056e-10
4.47096e-11
1.35657e-10
4.47008e-11
1.30871e-10
-1.9752e-10
3.15487e-10
-3.10965e-10
4.34299e-10
-2.33353e-10
4.11948e-10
-3.6499e-11
2.01179e-10
2.28765e-10
-2.23066e-10
5.28507e-10
-8.70772e-10
8.40611e-10
-1.74178e-09
1.15083e-09
-2.8293e-09
1.4502e-09
-4.12233e-09
1.73321e-09
-5.60729e-09
1.99661e-09
-7.26911e-09
2.23861e-09
-9.09202e-09
2.45846e-09
-1.10601e-08
2.65609e-09
-1.31575e-08
2.83182e-09
-1.53688e-08
2.98631e-09
-1.76791e-08
3.12037e-09
-2.00741e-08
3.23495e-09
-2.25403e-08
3.33101e-09
-2.50648e-08
3.40952e-09
-2.76353e-08
3.47144e-09
-3.02402e-08
3.5177e-09
-3.28686e-08
3.54917e-09
-3.55101e-08
3.56662e-09
-3.81548e-08
3.57077e-09
-4.07933e-08
3.56225e-09
-4.34166e-08
3.54163e-09
-4.6016e-08
3.50941e-09
-4.85832e-08
3.46599e-09
-5.11101e-08
3.41172e-09
-5.35888e-08
3.34687e-09
-5.60116e-08
3.27168e-09
-5.8371e-08
3.18633e-09
-6.06595e-08
3.09097e-09
-6.28697e-08
2.98569e-09
-6.49943e-08
2.87058e-09
-6.70261e-08
2.74572e-09
-6.89578e-08
2.61115e-09
-7.07825e-08
2.46698e-09
-7.24929e-08
2.31327e-09
-7.40823e-08
2.15014e-09
-7.55436e-08
1.97773e-09
-7.68703e-08
1.79621e-09
-7.80557e-08
1.60583e-09
-7.90937e-08
1.40688e-09
-7.99781e-08
1.19971e-09
-8.07032e-08
9.8474e-10
-8.12638e-08
7.62477e-10
-8.16548e-08
5.33493e-10
-8.1872e-08
2.98451e-10
-8.19114e-08
5.81122e-11
-8.17698e-08
-1.86687e-10
-8.14448e-08
-4.35016e-10
-8.09344e-08
-6.85855e-10
-8.02377e-08
-9.38104e-10
-7.93547e-08
-1.19058e-09
-7.82861e-08
-1.44201e-09
-7.70339e-08
-1.69107e-09
-7.56007e-08
-1.93636e-09
-7.39905e-08
-2.17644e-09
-7.22083e-08
-2.40981e-09
-7.02602e-08
-2.63496e-09
-6.81534e-08
-2.85033e-09
-6.58963e-08
-3.0544e-09
-6.34984e-08
-3.24563e-09
-6.09702e-08
-3.42253e-09
-5.83234e-08
-3.58363e-09
-5.55707e-08
-3.72753e-09
-5.27256e-08
-3.85292e-09
-4.98027e-08
-3.95856e-09
-4.68174e-08
-4.04332e-09
-4.37857e-08
-4.10619e-09
-4.07244e-08
-4.14631e-09
-3.76506e-08
-4.16295e-09
-3.45821e-08
-4.15557e-09
-3.15367e-08
-4.12377e-09
-2.85325e-08
-4.06735e-09
-2.55877e-08
-3.98628e-09
-2.272e-08
-3.88072e-09
-1.99473e-08
-3.75104e-09
-1.72868e-08
-3.59782e-09
-1.47551e-08
-3.42182e-09
-1.23681e-08
-3.22402e-09
-1.0141e-08
-3.00562e-09
-8.08761e-09
-2.76809e-09
-6.22062e-09
-2.51311e-09
-4.55122e-09
-2.24268e-09
-3.08881e-09
-1.9591e-09
-1.84075e-09
-1.66514e-09
-8.11962e-10
-1.36403e-09
-4.36259e-12
-1.05976e-09
5.83839e-10
-7.57262e-10
9.59025e-10
-4.62773e-10
1.13359e-09
-1.84536e-10
1.12778e-09
6.64213e-11
9.72168e-10
2.75079e-10
7.10943e-10
4.20918e-10
4.05299e-10
4.76219e-10
1.35215e-10
4.05744e-10
1.79907e-10
1.18435e-10
-3.15946e-10
2.41645e-10
-4.34166e-10
2.30097e-10
-2.21795e-10
-5.54053e-12
1.99136e-10
-5.23397e-10
7.46634e-10
-1.35733e-09
1.36244e-09
-2.5225e-09
2.00578e-09
-4.02071e-09
2.64906e-09
-5.84436e-09
3.27386e-09
-7.97933e-09
3.8682e-09
-1.04072e-08
4.42449e-09
-1.31069e-08
4.93829e-09
-1.60557e-08
5.40726e-09
-1.92302e-08
5.83061e-09
-2.26069e-08
6.20852e-09
-2.61625e-08
6.54193e-09
-2.98744e-08
6.8322e-09
-3.37205e-08
7.08103e-09
-3.76797e-08
7.29022e-09
-4.17318e-08
7.46167e-09
-4.58577e-08
7.59726e-09
-5.00388e-08
7.69882e-09
-5.42577e-08
7.76811e-09
-5.84978e-08
7.80673e-09
-6.27432e-08
7.81614e-09
-6.69786e-08
7.79768e-09
-7.11895e-08
7.75253e-09
-7.53619e-08
7.68174e-09
-7.94821e-08
7.58619e-09
-8.3537e-08
7.46662e-09
-8.75138e-08
7.32365e-09
-9.13999e-08
7.15782e-09
-9.51831e-08
6.96952e-09
-9.88512e-08
6.75911e-09
-1.02392e-07
6.52685e-09
-1.05795e-07
6.27297e-09
-1.09047e-07
5.99766e-09
-1.12137e-07
5.70112e-09
-1.15053e-07
5.38356e-09
-1.17785e-07
5.04522e-09
-1.20321e-07
4.68638e-09
-1.22651e-07
4.30741e-09
-1.24764e-07
3.90876e-09
-1.26649e-07
3.49096e-09
-1.28297e-07
3.05471e-09
-1.29698e-07
2.60082e-09
-1.30843e-07
2.13024e-09
-1.31725e-07
1.64411e-09
-1.32335e-07
1.14371e-09
-1.32667e-07
6.30499e-10
-1.32715e-07
1.06146e-10
-1.32474e-07
-4.27508e-10
-1.31941e-07
-9.68437e-10
-1.31112e-07
-1.51442e-09
-1.29987e-07
-2.06307e-09
-1.28566e-07
-2.61182e-09
-1.2685e-07
-3.15796e-09
-1.24843e-07
-3.6986e-09
-1.22548e-07
-4.23075e-09
-1.19973e-07
-4.75131e-09
-1.17126e-07
-5.25707e-09
-1.14016e-07
-5.74477e-09
-1.10656e-07
-6.21115e-09
-1.07057e-07
-6.65291e-09
-1.03236e-07
-7.06678e-09
-9.92089e-08
-7.44956e-09
-9.49944e-08
-7.79816e-09
-9.06123e-08
-8.10959e-09
-8.60842e-08
-8.38105e-09
-8.14328e-08
-8.60991e-09
-7.66824e-08
-8.7938e-09
-7.1858e-08
-8.93059e-09
-6.69858e-08
-9.01844e-09
-6.20929e-08
-9.05585e-09
-5.72069e-08
-9.04165e-09
-5.23556e-08
-8.97504e-09
-4.75674e-08
-8.85559e-09
-4.28703e-08
-8.68331e-09
-3.82924e-08
-8.45859e-09
-3.38612e-08
-8.18227e-09
-2.96034e-08
-7.85562e-09
-2.55448e-08
-7.48038e-09
-2.17101e-08
-7.05874e-09
-1.81223e-08
-6.59341e-09
-1.48028e-08
-6.0876e-09
-1.17708e-08
-5.54514e-09
-9.04304e-09
-4.97045e-09
-6.6334e-09
-4.36876e-09
-4.55239e-09
-3.74615e-09
-2.80654e-09
-3.10988e-09
-1.39766e-09
-2.46864e-09
-3.21824e-10
-1.8331e-09
4.3189e-10
-1.21648e-09
8.82968e-10
-6.35611e-10
1.06152e-09
-1.1213e-10
1.01075e-09
3.25843e-10
7.8983e-10
6.4183e-10
4.76628e-10
7.89408e-10
1.70001e-10
7.12364e-10
3.49906e-10
6.30749e-11
-3.79036e-10
4.55774e-11
-4.16666e-10
-1.88427e-10
1.22051e-11
-7.30009e-10
7.40688e-10
-1.63977e-09
1.6564e-09
-2.95394e-09
2.67661e-09
-4.68964e-09
3.74148e-09
-6.8494e-09
4.80881e-09
-9.42485e-09
5.8493e-09
-1.23997e-08
6.84306e-09
-1.57522e-08
7.777e-09
-1.94568e-08
8.6429e-09
-2.34857e-08
9.43611e-09
-2.78096e-08
1.01545e-08
-3.23989e-08
1.07978e-08
-3.72239e-08
1.1367e-08
-4.22555e-08
1.18638e-08
-4.74651e-08
1.22906e-08
-5.28252e-08
1.26503e-08
-5.83091e-08
1.29456e-08
-6.38914e-08
1.31795e-08
-6.95476e-08
1.3355e-08
-7.52544e-08
1.34749e-08
-8.09893e-08
1.35416e-08
-8.67309e-08
1.35578e-08
-9.24586e-08
1.35254e-08
-9.81527e-08
1.34466e-08
-1.03794e-07
1.33231e-08
-1.09364e-07
1.31563e-08
-1.14845e-07
1.29475e-08
-1.20219e-07
1.26978e-08
-1.2547e-07
1.24082e-08
-1.30579e-07
1.20794e-08
-1.35532e-07
1.1712e-08
-1.40312e-07
1.13065e-08
-1.44902e-07
1.08634e-08
-1.49288e-07
1.03831e-08
-1.53453e-07
9.8659e-09
-1.57381e-07
9.31235e-09
-1.61059e-07
8.72289e-09
-1.64471e-07
8.09811e-09
-1.67602e-07
7.43868e-09
-1.70439e-07
6.74545e-09
-1.72967e-07
6.01946e-09
-1.75174e-07
5.26191e-09
-1.77048e-07
4.47429e-09
-1.78576e-07
3.6583e-09
-1.79748e-07
2.81593e-09
-1.80554e-07
1.94945e-09
-1.80984e-07
1.06142e-09
-1.81033e-07
1.54732e-10
-1.80693e-07
-7.67429e-10
-1.7996e-07
-1.70155e-09
-1.78831e-07
-2.64382e-09
-1.77304e-07
-3.59012e-09
-1.75379e-07
-4.53606e-09
-1.7306e-07
-5.47697e-09
-1.70351e-07
-6.40795e-09
-1.67258e-07
-7.32387e-09
-1.6379e-07
-8.21946e-09
-1.59958e-07
-9.08926e-09
-1.55775e-07
-9.92775e-09
-1.51256e-07
-1.07293e-08
-1.46421e-07
-1.14885e-08
-1.41288e-07
-1.21996e-08
-1.3588e-07
-1.28573e-08
-1.30222e-07
-1.34563e-08
-1.2434e-07
-1.39916e-08
-1.18263e-07
-1.44585e-08
-1.1202e-07
-1.48525e-08
-1.05644e-07
-1.51696e-08
-9.91687e-08
-1.54062e-08
-9.26279e-08
-1.55593e-08
-8.60573e-08
-1.56264e-08
-7.94936e-08
-1.56054e-08
-7.29735e-08
-1.54951e-08
-6.65342e-08
-1.52949e-08
-6.02129e-08
-1.50046e-08
-5.40462e-08
-1.46252e-08
-4.80704e-08
-1.41581e-08
-4.23204e-08
-1.36056e-08
-3.68301e-08
-1.29707e-08
-3.16315e-08
-1.22573e-08
-2.67548e-08
-1.14701e-08
-2.22276e-08
-1.06149e-08
-1.80745e-08
-9.6982e-09
-1.4317e-08
-8.72795e-09
-1.09726e-08
-7.71319e-09
-8.05423e-09
-6.66454e-09
-5.56956e-09
-5.59454e-09
-3.52014e-09
-4.51806e-09
-1.90024e-09
-3.45299e-09
-6.95537e-10
-2.42119e-09
1.18484e-10
-1.44963e-09
5.78396e-10
-5.72042e-10
7.35016e-10
1.69226e-10
6.5585e-10
7.20992e-10
4.27743e-10
1.0175e-09
1.60564e-10
9.7954e-10
5.10474e-10
-1.45204e-11
-3.64513e-10
-2.21899e-10
-2.0929e-10
-7.40639e-10
5.30962e-10
-1.65385e-09
1.6539e-09
-3.01767e-09
3.02021e-09
-4.86611e-09
4.52504e-09
-7.21504e-09
6.09041e-09
-1.00659e-08
7.65964e-09
-1.34088e-08
9.1922e-09
-1.72254e-08
1.06597e-08
-2.14911e-08
1.20427e-08
-2.61769e-08
1.33287e-08
-3.12508e-08
1.451e-08
-3.66791e-08
1.55828e-08
-4.24271e-08
1.65459e-08
-4.846e-08
1.73998e-08
-5.4743e-08
1.81468e-08
-6.12423e-08
1.87899e-08
-6.79245e-08
1.93325e-08
-7.47576e-08
1.97787e-08
-8.17107e-08
2.01326e-08
-8.87538e-08
2.03981e-08
-9.58582e-08
2.05793e-08
-1.02996e-07
2.06799e-08
-1.10142e-07
2.07032e-08
-1.17269e-07
2.06527e-08
-1.24354e-07
2.0531e-08
-1.31371e-07
2.03408e-08
-1.38299e-07
2.00842e-08
-1.45115e-07
1.97633e-08
-1.51797e-07
1.93796e-08
-1.58323e-07
1.89346e-08
-1.64673e-07
1.84295e-08
-1.70826e-07
1.78651e-08
-1.76762e-07
1.72425e-08
-1.82461e-07
1.65623e-08
-1.87903e-07
1.58252e-08
-1.93069e-07
1.50319e-08
-1.9794e-07
1.41833e-08
-2.02497e-07
1.328e-08
-2.06722e-07
1.23231e-08
-2.10597e-07
1.13137e-08
-2.14105e-07
1.02532e-08
-2.17229e-07
9.14318e-09
-2.19953e-07
7.9857e-09
-2.22261e-07
6.783e-09
-2.24141e-07
5.53776e-09
-2.25578e-07
4.25306e-09
-2.26561e-07
2.9324e-09
-2.27079e-07
1.57973e-09
-2.27124e-07
1.99452e-10
-2.26688e-07
-1.20356e-09
-2.25765e-07
-2.62399e-09
-2.24353e-07
-4.05603e-09
-2.2245e-07
-5.49347e-09
-2.20056e-07
-6.92966e-09
-2.17175e-07
-8.35757e-09
-2.13814e-07
-9.76982e-09
-2.09979e-07
-1.11587e-08
-2.05682e-07
-1.25163e-08
-2.00937e-07
-1.38344e-08
-1.9576e-07
-1.51047e-08
-1.9017e-07
-1.6319e-08
-1.8419e-07
-1.74688e-08
-1.77844e-07
-1.85458e-08
-1.71159e-07
-1.9542e-08
-1.64166e-07
-2.04496e-08
-1.56896e-07
-2.1261e-08
-1.49386e-07
-2.19692e-08
-1.41671e-07
-2.25675e-08
-1.3379e-07
-2.305e-08
-1.25785e-07
-2.34115e-08
-1.17697e-07
-2.36473e-08
-1.0957e-07
-2.37536e-08
-1.01447e-07
-2.37278e-08
-9.33747e-08
-2.35677e-08
-8.5397e-08
-2.32726e-08
-7.75591e-08
-2.28425e-08
-6.99057e-08
-2.22787e-08
-6.24804e-08
-2.15835e-08
-5.53256e-08
-2.07604e-08
-4.84822e-08
-1.98141e-08
-4.19888e-08
-1.87507e-08
-3.58815e-08
-1.75774e-08
-3.01934e-08
-1.6303e-08
-2.4954e-08
-1.49376e-08
-2.01886e-08
-1.34934e-08
-1.59178e-08
-1.1984e-08
-1.21566e-08
-1.04257e-08
-8.91395e-09
-8.83723e-09
-6.19121e-09
-7.24079e-09
-3.98157e-09
-5.66263e-09
-2.26853e-09
-4.13421e-09
-1.02456e-09
-2.6936e-09
-2.09406e-10
-1.38721e-09
2.31721e-10
-2.71897e-10
3.70206e-10
5.82504e-10
2.96546e-10
1.09115e-09
1.24197e-10
1.15189e-09
6.34673e-10
-1.02143e-10
-2.62371e-10
-5.27968e-10
2.1653e-10
-1.37106e-09
1.37405e-09
-2.69997e-09
2.9828e-09
-4.56151e-09
4.88176e-09
-6.98365e-09
6.94719e-09
-9.97819e-09
9.08495e-09
-1.35435e-08
1.1225e-08
-1.76673e-08
1.3316e-08
-2.23285e-08
1.53209e-08
-2.74999e-08
1.72141e-08
-3.31492e-08
1.8978e-08
-3.92411e-08
2.06019e-08
-4.57379e-08
2.20796e-08
-5.26009e-08
2.34088e-08
-5.97907e-08
2.45897e-08
-6.72682e-08
2.56243e-08
-7.49946e-08
2.65163e-08
-8.2932e-08
2.72699e-08
-9.10435e-08
2.78902e-08
-9.92932e-08
2.83823e-08
-1.07646e-07
2.87514e-08
-1.1607e-07
2.90027e-08
-1.24531e-07
2.91412e-08
-1.32999e-07
2.91713e-08
-1.41444e-07
2.90975e-08
-1.49837e-07
2.89235e-08
-1.58149e-07
2.86529e-08
-1.66353e-07
2.82886e-08
-1.74423e-07
2.78333e-08
-1.82333e-07
2.72894e-08
-1.90057e-07
2.66588e-08
-1.97571e-07
2.59431e-08
-2.04849e-07
2.51439e-08
-2.11869e-07
2.42623e-08
-2.18606e-07
2.32996e-08
-2.25038e-07
2.22568e-08
-2.31141e-07
2.1135e-08
-2.36893e-07
1.99353e-08
-2.42272e-07
1.86591e-08
-2.47257e-07
1.73077e-08
-2.51826e-07
1.58829e-08
-2.5596e-07
1.43868e-08
-2.59638e-07
1.28217e-08
-2.62843e-07
1.11905e-08
-2.65557e-07
9.4966e-09
-2.67763e-07
7.74372e-09
-2.69446e-07
5.93628e-09
-2.70593e-07
4.07925e-09
-2.71191e-07
2.17821e-09
-2.71231e-07
2.39391e-10
-2.70704e-07
-1.73038e-09
-2.69605e-07
-3.72363e-09
-2.67928e-07
-5.73227e-09
-2.65674e-07
-7.74759e-09
-2.62844e-07
-9.76034e-09
-2.5944e-07
-1.17607e-08
-2.55472e-07
-1.37385e-08
-2.50948e-07
-1.5683e-08
-2.45881e-07
-1.75831e-08
-2.40287e-07
-1.94276e-08
-2.34187e-07
-2.1205e-08
-2.27602e-07
-2.29038e-08
-2.20559e-07
-2.45123e-08
-2.13085e-07
-2.60191e-08
-2.05214e-07
-2.74132e-08
-1.9698e-07
-2.86837e-08
-1.88421e-07
-2.98202e-08
-1.79577e-07
-3.08129e-08
-1.70492e-07
-3.16529e-08
-1.6121e-07
-3.23319e-08
-1.51779e-07
-3.28426e-08
-1.42247e-07
-3.31788e-08
-1.32666e-07
-3.33353e-08
-1.23085e-07
-3.33083e-08
-1.13558e-07
-3.30951e-08
-1.04136e-07
-3.26946e-08
-9.4871e-08
-3.21071e-08
-8.58153e-08
-3.13344e-08
-7.7019e-08
-3.03798e-08
-6.85311e-08
-2.92483e-08
-6.03986e-08
-2.79467e-08
-5.26659e-08
-2.64833e-08
-4.53746e-08
-2.48687e-08
-3.85626e-08
-2.3115e-08
-3.22636e-08
-2.12367e-08
-2.65065e-08
-1.92505e-08
-2.13146e-08
-1.71758e-08
-1.67051e-08
-1.50352e-08
-1.2688e-08
-1.28544e-08
-9.26513e-09
-1.06636e-08
-6.42939e-09
-8.49836e-09
-4.16339e-09
-6.40022e-09
-2.43824e-09
-4.41876e-09
-1.21226e-09
-2.61319e-09
-4.29463e-10
-1.05469e-09
-1.79336e-11
1.70969e-10
1.12294e-10
9.60926e-10
7.20895e-11
1.1921e-09
7.06762e-10
-1.93515e-10
-6.88575e-11
-8.5227e-10
8.75282e-10
-2.04252e-09
2.56431e-09
-3.81454e-09
4.75482e-09
-6.20242e-09
7.26964e-09
-9.22515e-09
9.96992e-09
-1.28881e-08
1.27479e-08
-1.7185e-08
1.55219e-08
-2.20996e-08
1.82306e-08
-2.76078e-08
2.0829e-08
-3.36789e-08
2.32852e-08
-4.02779e-08
2.5577e-08
-4.73659e-08
2.769e-08
-5.49021e-08
2.96159e-08
-6.28441e-08
3.13508e-08
-7.11487e-08
3.28943e-08
-7.97728e-08
3.42484e-08
-8.86737e-08
3.54171e-08
-9.78092e-08
3.64054e-08
-1.07138e-07
3.72192e-08
-1.16621e-07
3.78647e-08
-1.26218e-07
3.83484e-08
-1.35892e-07
3.86766e-08
-1.45606e-07
3.88555e-08
-1.55325e-07
3.88908e-08
-1.65016e-07
3.8788e-08
-1.74644e-07
3.8552e-08
-1.84179e-07
3.81872e-08
-1.93588e-07
3.76975e-08
-2.02841e-07
3.70864e-08
-2.11908e-07
3.6357e-08
-2.20761e-07
3.55117e-08
-2.29371e-07
3.4553e-08
-2.3771e-07
3.34827e-08
-2.45751e-07
3.23027e-08
-2.53465e-07
3.10145e-08
-2.60828e-07
2.96196e-08
-2.67813e-07
2.81196e-08
-2.74394e-07
2.65162e-08
-2.80546e-07
2.48111e-08
-2.86244e-07
2.30065e-08
-2.91466e-07
2.11048e-08
-2.96188e-07
1.91088e-08
-3.00389e-07
1.70218e-08
-3.04046e-07
1.48478e-08
-3.0714e-07
1.25912e-08
-3.09654e-07
1.02572e-08
-3.11569e-07
7.85174e-09
-3.12872e-07
5.38144e-09
-3.13547e-07
2.85379e-09
-3.13585e-07
2.77031e-10
-3.12975e-07
-2.33973e-09
-3.11712e-07
-4.98659e-09
-3.09792e-07
-7.65284e-09
-3.07212e-07
-1.0327e-08
-3.03976e-07
-1.29969e-08
-3.00087e-07
-1.56495e-08
-2.95554e-07
-1.82715e-08
-2.90389e-07
-2.08487e-08
-2.84605e-07
-2.33667e-08
-2.78222e-07
-2.58106e-08
-2.71262e-07
-2.81654e-08
-2.6375e-07
-3.04159e-08
-2.55715e-07
-3.25471e-08
-2.4719e-07
-3.4544e-08
-2.38211e-07
-3.63919e-08
-2.28818e-07
-3.80768e-08
-2.19053e-07
-3.95851e-08
-2.08962e-07
-4.0904e-08
-1.98593e-07
-4.20217e-08
-1.87998e-07
-4.29276e-08
-1.77228e-07
-4.3612e-08
-1.6634e-07
-4.4067e-08
-1.5539e-07
-4.42857e-08
-1.44435e-07
-4.42632e-08
-1.33534e-07
-4.39963e-08
-1.22745e-07
-4.34834e-08
-1.12127e-07
-4.27249e-08
-1.01738e-07
-4.17235e-08
-9.16342e-08
-4.04835e-08
-8.18707e-08
-3.90118e-08
-7.25001e-08
-3.73173e-08
-6.35721e-08
-3.54113e-08
-5.51332e-08
-3.33076e-08
-4.72256e-08
-3.10225e-08
-3.9887e-08
-2.85752e-08
-3.31496e-08
-2.59879e-08
-2.70396e-08
-2.32859e-08
-2.1576e-08
-2.04987e-08
-1.67705e-08
-1.76599e-08
-1.2626e-08
-1.48082e-08
-9.13575e-09
-1.19886e-08
-6.28264e-09
-9.25334e-09
-4.03792e-09
-6.66347e-09
-2.3603e-09
-4.29081e-09
-1.19474e-09
-2.22025e-09
-4.71354e-10
-5.52424e-10
-1.04012e-10
5.93589e-10
1.13622e-11
1.07673e-09
7.18126e-10
-2.85127e-10
2.1627e-10
-1.1824e-09
1.77255e-09
-2.73091e-09
4.11283e-09
-4.96101e-09
6.98492e-09
-7.892e-09
1.02006e-08
-1.15319e-08
1.36098e-08
-1.58777e-08
1.70938e-08
-2.0917e-08
2.05612e-08
-2.66286e-08
2.39421e-08
-3.29841e-08
2.71845e-08
-3.99495e-08
3.02506e-08
-4.74862e-08
3.31137e-08
-5.55524e-08
3.57561e-08
-6.41038e-08
3.81672e-08
-7.30947e-08
4.03417e-08
-8.24786e-08
4.22782e-08
-9.22091e-08
4.39789e-08
-1.0224e-07
4.54477e-08
-1.12525e-07
4.66904e-08
-1.23019e-07
4.77137e-08
-1.33679e-07
4.85249e-08
-1.44463e-07
4.91317e-08
-1.55327e-07
4.95416e-08
-1.66234e-07
4.97619e-08
-1.77143e-07
4.97997e-08
-1.88016e-07
4.96615e-08
-1.98817e-07
4.93533e-08
-2.09511e-07
4.88806e-08
-2.20061e-07
4.82482e-08
-2.30436e-07
4.74604e-08
-2.406e-07
4.65211e-08
-2.50522e-07
4.54336e-08
-2.60169e-07
4.42007e-08
-2.69511e-07
4.2825e-08
-2.78518e-07
4.13088e-08
-2.87157e-07
3.96543e-08
-2.95401e-07
3.78635e-08
-3.0322e-07
3.59384e-08
-3.10585e-07
3.38815e-08
-3.17469e-07
3.1695e-08
-3.23845e-07
2.93819e-08
-3.29685e-07
2.69453e-08
-3.34965e-07
2.43889e-08
-3.39661e-07
2.17173e-08
-3.43748e-07
1.89353e-08
-3.47206e-07
1.6049e-08
-3.50014e-07
1.30649e-08
-3.52153e-07
9.99073e-09
-3.53606e-07
6.83501e-09
-3.5436e-07
3.60728e-09
-3.54401e-07
3.18125e-10
-3.5372e-07
-3.02089e-09
-3.52309e-07
-6.39715e-09
-3.50165e-07
-9.79706e-09
-3.47286e-07
-1.3206e-08
-3.43674e-07
-1.66087e-08
-3.39335e-07
-1.99886e-08
-3.34278e-07
-2.33287e-08
-3.28515e-07
-2.66113e-08
-3.22064e-07
-2.98181e-08
-3.14944e-07
-3.29303e-08
-3.0718e-07
-3.59291e-08
-2.98801e-07
-3.87954e-08
-2.89838e-07
-4.151e-08
-2.80328e-07
-4.40542e-08
-2.7031e-07
-4.64096e-08
-2.59828e-07
-4.85584e-08
-2.4893e-07
-5.04836e-08
-2.37665e-07
-5.21691e-08
-2.26086e-07
-5.36001e-08
-2.14251e-07
-5.47632e-08
-2.02216e-07
-5.56464e-08
-1.90044e-07
-5.62394e-08
-1.77796e-07
-5.65341e-08
-1.65535e-07
-5.65241e-08
-1.53326e-07
-5.62053e-08
-1.41233e-07
-5.5576e-08
-1.29321e-07
-5.46368e-08
-1.17654e-07
-5.3391e-08
-1.06293e-07
-5.18445e-08
-9.52989e-08
-5.00058e-08
-8.47297e-08
-4.78865e-08
-7.464e-08
-4.5501e-08
-6.50807e-08
-4.28669e-08
-5.60983e-08
-4.00049e-08
-4.77342e-08
-3.69393e-08
-4.00239e-08
-3.36982e-08
-3.29964e-08
-3.03135e-08
-2.6673e-08
-2.6822e-08
-2.10674e-08
-2.32655e-08
-1.61839e-08
-1.96917e-08
-1.20172e-08
-1.61553e-08
-8.55136e-09
-1.27192e-08
-5.75904e-09
-9.45578e-09
-3.60075e-09
-6.44911e-09
-2.02409e-09
-3.79691e-09
-9.63136e-10
-1.61338e-09
-3.3782e-10
-3.17256e-11
-5.34218e-11
7.92333e-10
6.64709e-10
-3.75158e-10
5.91436e-10
-1.51098e-09
2.90835e-09
-3.42086e-09
6.02272e-09
-6.11499e-09
9.67904e-09
-9.59683e-09
1.36825e-08
-1.3862e-08
1.7875e-08
-1.88982e-08
2.213e-08
-2.46852e-08
2.63482e-08
-3.11959e-08
3.04528e-08
-3.83971e-08
3.43858e-08
-4.62506e-08
3.81041e-08
-5.47143e-08
4.15773e-08
-6.37427e-08
4.47846e-08
-7.32885e-08
4.7713e-08
-8.33028e-08
5.0356e-08
-9.37361e-08
5.27115e-08
-1.04539e-07
5.47813e-08
-1.15661e-07
5.65697e-08
-1.27053e-07
5.80831e-08
-1.38669e-07
5.93289e-08
-1.50459e-07
6.03155e-08
-1.62379e-07
6.10517e-08
-1.74384e-07
6.15462e-08
-1.86429e-07
6.18075e-08
-1.98474e-07
6.1844e-08
-2.10476e-07
6.16633e-08
-2.22395e-07
6.12725e-08
-2.34192e-07
6.06781e-08
-2.4583e-07
5.9886e-08
-2.57271e-07
5.89014e-08
-2.68479e-07
5.77289e-08
-2.79418e-07
5.63724e-08
-2.90053e-07
5.48357e-08
-3.0035e-07
5.31219e-08
-3.10275e-07
5.12339e-08
-3.19795e-07
4.91745e-08
-3.28878e-07
4.69463e-08
-3.37491e-07
4.4552e-08
-3.45604e-07
4.19945e-08
-3.53187e-07
3.92771e-08
-3.60208e-07
3.64032e-08
-3.6664e-07
3.33771e-08
-3.72454e-07
3.02036e-08
-3.77625e-07
2.68881e-08
-3.82127e-07
2.3437e-08
-3.85936e-07
1.98578e-08
-3.8903e-07
1.61588e-08
-3.91388e-07
1.23494e-08
-3.92994e-07
8.44032e-09
-3.9383e-07
4.44339e-09
-3.93883e-07
3.71663e-10
-3.93144e-07
-3.76054e-09
-3.91603e-07
-7.9377e-09
-3.89257e-07
-1.21431e-08
-3.86104e-07
-1.63587e-08
-3.82147e-07
-2.05656e-08
-3.77392e-07
-2.47438e-08
-3.71849e-07
-2.88722e-08
-3.65531e-07
-3.29292e-08
-3.58456e-07
-3.68924e-08
-3.50648e-07
-4.07389e-08
-3.42132e-07
-4.44453e-08
-3.32938e-07
-4.79885e-08
-3.23103e-07
-5.13451e-08
-3.12666e-07
-5.4492e-08
-3.01668e-07
-5.74069e-08
-2.90159e-07
-6.00679e-08
-2.78188e-07
-6.24544e-08
-2.65811e-07
-6.45466e-08
-2.53084e-07
-6.63264e-08
-2.4007e-07
-6.77775e-08
-2.26831e-07
-6.88852e-08
-2.13434e-07
-6.96371e-08
-1.99945e-07
-7.00231e-08
-1.86433e-07
-7.00355e-08
-1.72969e-07
-6.96694e-08
-1.59622e-07
-6.89228e-08
-1.46462e-07
-6.77965e-08
-1.33559e-07
-6.62945e-08
-1.20979e-07
-6.44243e-08
-1.08789e-07
-6.21964e-08
-9.70499e-08
-5.96251e-08
-8.58227e-08
-5.67282e-08
-7.51622e-08
-5.35274e-08
-6.51191e-08
-5.00481e-08
-5.57383e-08
-4.63201e-08
-4.70587e-08
-4.23777e-08
-3.91123e-08
-3.82599e-08
-3.19231e-08
-3.40111e-08
-2.55071e-08
-2.96815e-08
-1.98708e-08
-2.53281e-08
-1.50108e-08
-2.10153e-08
-1.09134e-08
-1.68166e-08
-7.55355e-09
-1.28156e-08
-4.89479e-09
-9.10788e-09
-2.88858e-09
-5.80312e-09
-1.47431e-09
-3.02764e-09
-5.79335e-10
-9.26701e-10
-1.19417e-10
3.32425e-10
5.45298e-10
-4.62682e-10
1.05412e-09
-1.83369e-09
4.27935e-09
-4.10281e-09
8.29185e-09
-7.26054e-09
1.28368e-08
-1.12943e-08
1.77162e-08
-1.61866e-08
2.27673e-08
-2.19147e-08
2.78581e-08
-2.84499e-08
3.28834e-08
-3.57584e-08
3.77613e-08
-4.38014e-08
4.24287e-08
-5.2536e-08
4.68387e-08
-6.19158e-08
5.09572e-08
-7.18921e-08
5.47608e-08
-8.2414e-08
5.8235e-08
-9.34297e-08
6.13716e-08
-1.04886e-07
6.41682e-08
-1.16731e-07
6.66264e-08
-1.28912e-07
6.87506e-08
-1.41377e-07
7.05479e-08
-1.54075e-07
7.20265e-08
-1.66955e-07
7.31958e-08
-1.79969e-07
7.40657e-08
-1.93069e-07
7.46461e-08
-2.06208e-07
7.49468e-08
-2.19342e-07
7.49773e-08
-2.32425e-07
7.47463e-08
-2.45414e-07
7.42622e-08
-2.58269e-07
7.35326e-08
-2.70947e-07
7.25641e-08
-2.83408e-07
7.1363e-08
-2.95614e-07
6.99347e-08
-3.07526e-07
6.8284e-08
-3.19105e-07
6.64153e-08
-3.30316e-07
6.43324e-08
-3.41121e-07
6.20388e-08
-3.51484e-07
5.9538e-08
-3.61371e-07
5.68332e-08
-3.70747e-07
5.39279e-08
-3.79578e-07
5.08257e-08
-3.87832e-07
4.75305e-08
-3.95475e-07
4.40469e-08
-4.02478e-07
4.03799e-08
-4.0881e-07
3.65355e-08
-4.14442e-07
3.25205e-08
-4.19348e-07
2.83427e-08
-4.23501e-07
2.40111e-08
-4.26879e-07
1.95359e-08
-4.29458e-07
1.49286e-08
-4.31219e-07
1.0202e-08
-4.32146e-07
5.3705e-09
-4.32225e-07
4.49829e-10
-4.31442e-07
-4.54279e-09
-4.29791e-07
-9.58865e-09
-4.27267e-07
-1.46676e-08
-4.23867e-07
-1.97583e-08
-4.19595e-07
-2.48377e-08
-4.14457e-07
-2.98819e-08
-4.08463e-07
-3.48659e-08
-4.01629e-07
-3.97636e-08
-3.93973e-07
-4.45481e-08
-3.8552e-07
-4.91922e-08
-3.76297e-07
-5.36679e-08
-3.66338e-07
-5.79474e-08
-3.55681e-07
-6.2003e-08
-3.44366e-07
-6.58069e-08
-3.3244e-07
-6.93325e-08
-3.19954e-07
-7.25536e-08
-3.06963e-07
-7.54454e-08
-2.93525e-07
-7.79846e-08
-2.79702e-07
-8.01494e-08
-2.6556e-07
-8.19202e-08
-2.51165e-07
-8.32795e-08
-2.3659e-07
-8.42126e-08
-2.21906e-07
-8.47072e-08
-2.07187e-07
-8.47544e-08
-1.92508e-07
-8.43481e-08
-1.77945e-07
-8.34861e-08
-1.63572e-07
-8.21694e-08
-1.49464e-07
-8.04029e-08
-1.35693e-07
-7.81954e-08
-1.22329e-07
-7.55598e-08
-1.09441e-07
-7.25132e-08
-9.70922e-08
-6.90771e-08
-8.53423e-08
-6.52772e-08
-7.42461e-08
-6.11443e-08
-6.38524e-08
-5.67138e-08
-5.42036e-08
-5.20265e-08
-4.53348e-08
-4.71287e-08
-3.72733e-08
-4.20727e-08
-3.00376e-08
-3.69173e-08
-2.36369e-08
-3.17288e-08
-1.80706e-08
-2.65815e-08
-1.33278e-08
-2.15594e-08
-9.3868e-09
-1.67567e-08
-6.21477e-09
-1.22799e-08
-3.76801e-09
-8.24987e-09
-1.99202e-09
-4.80362e-09
-8.22174e-10
-2.09654e-09
-1.84905e-10
-3.04831e-10
3.60395e-10
-5.47241e-10
1.60138e-09
-2.14818e-09
5.88027e-09
-4.77105e-09
1.09147e-08
-8.38764e-09
1.64534e-08
-1.29694e-08
2.2298e-08
-1.84858e-08
2.82837e-08
-2.49029e-08
3.42751e-08
-3.2183e-08
4.01636e-08
-4.0285e-08
4.58632e-08
-4.91636e-08
5.13074e-08
-5.8771e-08
5.6446e-08
-6.90563e-08
6.12425e-08
-7.99667e-08
6.56713e-08
-9.14482e-08
6.97164e-08
-1.03445e-07
7.33689e-08
-1.15903e-07
7.66257e-08
-1.28765e-07
7.94885e-08
-1.41977e-07
8.19621e-08
-1.55483e-07
8.4054e-08
-1.6923e-07
8.57735e-08
-1.83165e-07
8.71308e-08
-1.97236e-07
8.81371e-08
-2.11393e-07
8.88034e-08
-2.25587e-07
8.91407e-08
-2.39769e-07
8.91596e-08
-2.53893e-07
8.88702e-08
-2.67913e-07
8.8282e-08
-2.81784e-07
8.74034e-08
-2.95462e-07
8.62424e-08
-3.08905e-07
8.48059e-08
-3.22071e-07
8.31003e-08
-3.34918e-07
8.11311e-08
-3.47406e-07
7.89036e-08
-3.59496e-07
7.64221e-08
-3.71148e-07
7.36911e-08
-3.82324e-07
7.07145e-08
-3.92988e-07
6.74963e-08
-4.031e-07
6.40407e-08
-4.12627e-07
6.0352e-08
-4.21531e-07
5.64351e-08
-4.2978e-07
5.22955e-08
-4.37339e-07
4.79393e-08
-4.44177e-07
4.33736e-08
-4.50263e-07
3.86066e-08
-4.55568e-07
3.36477e-08
-4.60065e-07
2.85076e-08
-4.63727e-07
2.31983e-08
-4.66532e-07
1.77337e-08
-4.68459e-07
1.21288e-08
-4.69489e-07
6.4007e-09
-4.69607e-07
5.67974e-10
-4.68801e-07
-5.34904e-09
-4.67061e-07
-1.13283e-08
-4.64383e-07
-1.73461e-08
-4.60764e-07
-2.33772e-08
-4.56207e-07
-2.93947e-08
-4.50719e-07
-3.53703e-08
-4.4431e-07
-4.12747e-08
-4.36996e-07
-4.70771e-08
-4.28798e-07
-5.27462e-08
-4.19741e-07
-5.82497e-08
-4.09854e-07
-6.3555e-08
-3.99172e-07
-6.86293e-08
-3.87735e-07
-7.344e-08
-3.75587e-07
-7.79548e-08
-3.62777e-07
-8.2142e-08
-3.4936e-07
-8.59712e-08
-3.35392e-07
-8.94131e-08
-3.20936e-07
-9.24403e-08
-3.06058e-07
-9.50272e-08
-2.90828e-07
-9.71508e-08
-2.75317e-07
-9.87905e-08
-2.596e-07
-9.99289e-08
-2.43756e-07
-1.00552e-07
-2.27862e-07
-1.00648e-07
-2.11998e-07
-1.00212e-07
-1.96246e-07
-9.92389e-08
-1.80684e-07
-9.77315e-08
-1.65391e-07
-9.5695e-08
-1.50447e-07
-9.314e-08
-1.35925e-07
-9.00814e-08
-1.21899e-07
-8.65395e-08
-1.08437e-07
-8.25394e-08
-9.56024e-08
-7.81115e-08
-8.3455e-08
-7.32916e-08
-7.20476e-08
-6.81213e-08
-6.1426e-08
-6.26481e-08
-5.16291e-08
-5.69256e-08
-4.26875e-08
-5.10143e-08
-3.46229e-08
-4.49819e-08
-2.74478e-08
-3.89039e-08
-2.11648e-08
-3.28645e-08
-1.57665e-08
-2.69577e-08
-1.1235e-08
-2.12882e-08
-7.54197e-09
-1.5973e-08
-4.64894e-09
-1.11429e-08
-2.50793e-09
-6.94464e-09
-1.06238e-09
-3.54208e-09
-2.48896e-10
-1.11831e-09
1.11498e-10
-6.28725e-10
2.23011e-09
-2.45329e-09
7.70482e-09
-5.42239e-09
1.38838e-08
-9.49024e-09
2.05212e-08
-1.4613e-08
2.74207e-08
-2.07467e-08
3.44174e-08
-2.78465e-08
4.13749e-08
-3.58652e-08
4.81823e-08
-4.47535e-08
5.47516e-08
-5.44599e-08
6.10138e-08
-6.49307e-08
6.69168e-08
-7.61102e-08
7.2422e-08
-8.79418e-08
7.75028e-08
-1.00367e-07
8.2142e-08
-1.13329e-07
8.63301e-08
-1.26767e-07
9.0064e-08
-1.40624e-07
9.33453e-08
-1.54841e-07
9.61795e-08
-1.69362e-07
9.85748e-08
-1.8413e-07
1.00541e-07
-1.99089e-07
1.0209e-07
-2.14187e-07
1.03234e-07
-2.29369e-07
1.03985e-07
-2.44583e-07
1.04356e-07
-2.59781e-07
1.04357e-07
-2.74911e-07
1.04001e-07
-2.89927e-07
1.03297e-07
-3.0478e-07
1.02257e-07
-3.19425e-07
1.00887e-07
-3.33816e-07
9.91971e-08
-3.47909e-07
9.71936e-08
-3.61661e-07
9.4883e-08
-3.75029e-07
9.22713e-08
-3.8797e-07
8.93636e-08
-4.00444e-07
8.6165e-08
-4.1241e-07
8.26802e-08
-4.23827e-07
7.89139e-08
-4.34658e-07
7.48711e-08
-4.44863e-07
7.05568e-08
-4.54404e-07
6.5977e-08
-4.63247e-07
6.11378e-08
-4.71354e-07
5.60468e-08
-4.78693e-07
5.07123e-08
-4.8523e-07
4.51439e-08
-4.90935e-07
3.93525e-08
-4.95778e-07
3.33507e-08
-4.99733e-07
2.71527e-08
-5.02774e-07
2.07744e-08
-5.04878e-07
1.42335e-08
-5.06027e-07
7.54968e-09
-5.06204e-07
7.44657e-10
-5.05395e-07
-6.15802e-09
-5.0359e-07
-1.31328e-08
-5.00784e-07
-2.01522e-08
-4.96975e-07
-2.71868e-08
-4.92164e-07
-3.42058e-08
-4.86358e-07
-4.11762e-08
-4.79568e-07
-4.80641e-08
-4.71811e-07
-5.48341e-08
-4.63108e-07