/*--------------------------------*- C++ -*----------------------------------*\
| =========                 |                                                 |
| \\      /  F ield         | OpenFOAM: The Open Source CFD Toolbox           |
|  \\    /   O peration     | Version:  2512                                  |
|   \\  /    A nd           | Website:  www.openfoam.com                      |
|    \\/     M anipulation  |                                                 |
\*---------------------------------------------------------------------------*/
FoamFile
{
    version     2.0;
    format      ascii;
    arch        "LSB;label=32;scalar=64";
    class       volVectorField;
    location    "0.3";
    object      U;
}
// * * * * * * * * * * * * * * * * * * * * * * * * * * * * * * * * * * * * * //

dimensions      [0 1 -1 0 0 0 0];

internalField   nonuniform List<vector> 
10000
(
(3.32545e-06 -2.92678e-06 0)
(1.29349e-05 -5.96285e-06 0)
(2.58369e-05 -6.03239e-06 0)
(3.51186e-05 -4.21535e-06 0)
(3.7547e-05 -1.59114e-06 0)
(3.15824e-05 1.33402e-06 0)
(1.67589e-05 4.28839e-06 0)
(-6.92123e-06 7.12937e-06 0)
(-3.91405e-05 9.78579e-06 0)
(-7.94024e-05 1.22292e-05 0)
(-0.000127127 1.44511e-05 0)
(-0.00018169 1.64487e-05 0)
(-0.00024245 1.82278e-05 0)
(-0.00030877 1.98004e-05 0)
(-0.000380029 2.11797e-05 0)
(-0.000455634 2.23758e-05 0)
(-0.000535016 2.33997e-05 0)
(-0.000617636 2.42637e-05 0)
(-0.000702984 2.49785e-05 0)
(-0.000790583 2.55541e-05 0)
(-0.000879985 2.60022e-05 0)
(-0.000970768 2.63333e-05 0)
(-0.00106254 2.65548e-05 0)
(-0.00115491 2.66732e-05 0)
(-0.00124756 2.6693e-05 0)
(-0.00134012 2.66196e-05 0)
(-0.0014323 2.64595e-05 0)
(-0.00152379 2.62182e-05 0)
(-0.0016143 2.58984e-05 0)
(-0.00170355 2.5502e-05 0)
(-0.00179126 2.50304e-05 0)
(-0.00187718 2.44844e-05 0)
(-0.00196103 2.3865e-05 0)
(-0.00204257 2.31735e-05 0)
(-0.00212153 2.24112e-05 0)
(-0.00219767 2.15781e-05 0)
(-0.00227072 2.06733e-05 0)
(-0.00234045 1.96958e-05 0)
(-0.0024066 1.86456e-05 0)
(-0.00246891 1.75235e-05 0)
(-0.00252715 1.63298e-05 0)
(-0.00258107 1.50647e-05 0)
(-0.00263043 1.37285e-05 0)
(-0.00267498 1.23221e-05 0)
(-0.0027145 1.08475e-05 0)
(-0.00274876 9.30693e-06 0)
(-0.00277755 7.70334e-06 0)
(-0.00280067 6.03981e-06 0)
(-0.00281793 4.32012e-06 0)
(-0.00282915 2.54909e-06 0)
(-0.00283418 7.32053e-07 0)
(-0.00283289 -1.12483e-06 0)
(-0.00282515 -3.01423e-06 0)
(-0.00281089 -4.92836e-06 0)
(-0.00279005 -6.85861e-06 0)
(-0.0027626 -8.79558e-06 0)
(-0.00272854 -1.07297e-05 0)
(-0.00268791 -1.26506e-05 0)
(-0.00264079 -1.45471e-05 0)
(-0.00258728 -1.64076e-05 0)
(-0.00252754 -1.82197e-05 0)
(-0.00246176 -1.9971e-05 0)
(-0.00239017 -2.1649e-05 0)
(-0.00231305 -2.32413e-05 0)
(-0.00223071 -2.47355e-05 0)
(-0.00214352 -2.61189e-05 0)
(-0.00205185 -2.73795e-05 0)
(-0.00195616 -2.85058e-05 0)
(-0.00185691 -2.94867e-05 0)
(-0.0017546 -3.03121e-05 0)
(-0.00164979 -3.09726e-05 0)
(-0.00154302 -3.14593e-05 0)
(-0.0014349 -3.17646e-05 0)
(-0.00132604 -3.18824e-05 0)
(-0.00121708 -3.18081e-05 0)
(-0.00110865 -3.15382e-05 0)
(-0.00100142 -3.10704e-05 0)
(-0.000896037 -3.04042e-05 0)
(-0.000793158 -2.95407e-05 0)
(-0.000693435 -2.84817e-05 0)
(-0.000597507 -2.72308e-05 0)
(-0.000505996 -2.57932e-05 0)
(-0.000419501 -2.41759e-05 0)
(-0.000338596 -2.23868e-05 0)
(-0.000263821 -2.04355e-05 0)
(-0.000195675 -1.83334e-05 0)
(-0.000134615 -1.60935e-05 0)
(-8.10418e-05 -1.37309e-05 0)
(-3.52961e-05 -1.12626e-05 0)
(2.35513e-06 -8.70963e-06 0)
(3.17328e-05 -6.09788e-06 0)
(5.27656e-05 -3.46069e-06 0)
(6.55236e-05 -8.46039e-07 0)
(7.02656e-05 1.67791e-06 0)
(6.75127e-05 4.00322e-06 0)
(5.81682e-05 5.95548e-06 0)
(4.3679e-05 7.24822e-06 0)
(2.63516e-05 7.39679e-06 0)
(1.02801e-05 5.64137e-06 0)
(1.61248e-06 1.61613e-06 0)
(6.60919e-06 -1.30729e-05 0)
(2.29902e-05 -2.22412e-05 0)
(3.99066e-05 -1.92582e-05 0)
(4.63299e-05 -8.69241e-06 0)
(3.55323e-05 5.9118e-06 0)
(4.19081e-06 2.24155e-05 0)
(-4.92858e-05 3.94885e-05 0)
(-0.000125298 5.63242e-05 0)
(-0.000223429 7.2452e-05 0)
(-0.000342746 8.75932e-05 0)
(-0.000481985 0.0001016 0)
(-0.000639693 0.000114398 0)
(-0.000814313 0.000125968 0)
(-0.00100425 0.000136323 0)
(-0.00120789 0.000145495 0)
(-0.0014237 0.000153529 0)
(-0.00165013 0.000160478 0)
(-0.00188574 0.000166399 0)
(-0.00212913 0.000171348 0)
(-0.00237897 0.00017538 0)
(-0.00263401 0.00017855 0)
(-0.00289306 0.00018091 0)
(-0.00315499 0.00018251 0)
(-0.00341874 0.000183392 0)
(-0.00368328 0.000183592 0)
(-0.00394767 0.000183144 0)
(-0.00421098 0.000182079 0)
(-0.00447233 0.000180425 0)
(-0.00473086 0.000178203 0)
(-0.00498576 0.000175429 0)
(-0.00523624 0.000172119 0)
(-0.0054815 0.000168283 0)
(-0.0057208 0.000163929 0)
(-0.00595338 0.000159066 0)
(-0.00617849 0.000153697 0)
(-0.00639541 0.000147825 0)
(-0.00660341 0.000141454 0)
(-0.00680176 0.000134585 0)
(-0.00698976 0.00012722 0)
(-0.00716669 0.000119365 0)
(-0.00733184 0.000111021 0)
(-0.00748454 0.000102197 0)
(-0.0076241 9.2899e-05 0)
(-0.00774987 8.31386e-05 0)
(-0.00786119 7.29302e-05 0)
(-0.00795745 6.22912e-05 0)
(-0.00803806 5.12426e-05 0)
(-0.00810247 3.98092e-05 0)
(-0.00815017 2.80195e-05 0)
(-0.00818068 1.59079e-05 0)
(-0.00819359 3.51294e-06 0)
(-0.00818856 -9.12254e-06 0)
(-0.00816528 -2.19504e-05 0)
(-0.00812354 -3.49179e-05 0)
(-0.0080632 -4.7968e-05 0)
(-0.0079842 -6.10387e-05 0)
(-0.00788659 -7.40641e-05 0)
(-0.00777049 -8.69752e-05 0)
(-0.00763613 -9.96991e-05 0)
(-0.00748385 -0.00011216 0)
(-0.0073141 -0.000124278 0)
(-0.00712742 -0.000135975 0)
(-0.00692448 -0.000147169 0)
(-0.00670607 -0.000157779 0)
(-0.00647307 -0.000167724 0)
(-0.0062265 -0.000176926 0)
(-0.00596745 -0.000185308 0)
(-0.00569715 -0.000192794 0)
(-0.00541691 -0.000199316 0)
(-0.00512814 -0.000204807 0)
(-0.00483235 -0.000209209 0)
(-0.00453109 -0.000212466 0)
(-0.00422603 -0.000214534 0)
(-0.00391885 -0.000215373 0)
(-0.0036113 -0.000214954 0)
(-0.00330516 -0.000213256 0)
(-0.00300224 -0.000210267 0)
(-0.00270434 -0.000205985 0)
(-0.00241328 -0.000200418 0)
(-0.00213084 -0.000193583 0)
(-0.00185876 -0.000185509 0)
(-0.00159875 -0.000176234 0)
(-0.00135244 -0.000165808 0)
(-0.00112138 -0.000154291 0)
(-0.000907033 -0.000141756 0)
(-0.000710724 -0.000128288 0)
(-0.000533655 -0.000113986 0)
(-0.000376861 -9.89659e-05 0)
(-0.000241192 -8.33647e-05 0)
(-0.00012727 -6.73458e-05 0)
(-3.54498e-05 -5.11093e-05 0)
(3.42375e-05 -3.49074e-05 0)
(8.21743e-05 -1.9068e-05 0)
(0.000109266 -4.03432e-06 0)
(0.000117097 9.57438e-06 0)
(0.000108153 2.08748e-05 0)
(8.60427e-05 2.85974e-05 0)
(5.5829e-05 3.09144e-05 0)
(2.53251e-05 2.53707e-05 0)
(5.60806e-06 1.02589e-05 0)
(6.43296e-06 -2.62903e-05 0)
(2.00202e-05 -3.95942e-05 0)
(2.79455e-05 -2.69952e-05 0)
(1.75235e-05 1.71286e-06 0)
(-1.90275e-05 3.99696e-05 0)
(-8.60532e-05 8.32086e-05 0)
(-0.000185812 0.000128347 0)
(-0.000319052 0.00017336 0)
(-0.000485412 0.00021693 0)
(-0.000683742 0.000258234 0)
(-0.000912367 0.000296768 0)
(-0.00116928 0.000332247 0)
(-0.00145227 0.00036454 0)
(-0.00175901 0.000393616 0)
(-0.00208715 0.000419511 0)
(-0.00243433 0.000442304 0)
(-0.00279826 0.000462109 0)
(-0.00317668 0.000479056 0)
(-0.00356746 0.000493281 0)
(-0.00396851 0.00050492 0)
(-0.00437788 0.000514109 0)
(-0.00479367 0.000520983 0)
(-0.0052141 0.000525666 0)
(-0.00563745 0.000528273 0)
(-0.00606211 0.000528905 0)
(-0.00648652 0.000527656 0)
(-0.0069092 0.000524608 0)
(-0.0073287 0.000519834 0)
(-0.00774366 0.000513395 0)
(-0.00815274 0.00050534 0)
(-0.00855464 0.000495713 0)
(-0.00894809 0.000484547 0)
(-0.00933186 0.000471871 0)
(-0.00970473 0.000457705 0)
(-0.0100655 0.000442067 0)
(-0.010413 0.00042497 0)
(-0.010746 0.000406425 0)
(-0.0110633 0.000386444 0)
(-0.0113639 0.000365038 0)
(-0.0116467 0.000342223 0)
(-0.0119103 0.000318016 0)
(-0.0121539 0.000292438 0)
(-0.0123763 0.000265517 0)
(-0.0125764 0.000237289 0)
(-0.0127533 0.000207799 0)
(-0.012906 0.0001771 0)
(-0.0130335 0.000145255 0)
(-0.0131351 0.00011234 0)
(-0.0132098 7.84401e-05 0)
(-0.0132571 4.36546e-05 0)
(-0.0132762 8.09525e-06 0)
(-0.0132667 -2.81133e-05 0)
(-0.0132281 -6.48336e-05 0)
(-0.01316 -0.000101915 0)
(-0.0130623 -0.000139194 0)
(-0.012935 -0.000176497 0)
(-0.0127781 -0.000213637 0)
(-0.0125918 -0.000250418 0)
(-0.0123766 -0.000286634 0)
(-0.0121329 -0.000322074 0)
(-0.0118616 -0.000356516 0)
(-0.0115635 -0.000389739 0)
(-0.0112397 -0.000421515 0)
(-0.0108913 -0.000451619 0)
(-0.01052 -0.000479826 0)
(-0.0101271 -0.000505916 0)
(-0.00971456 -0.000529676 0)
(-0.00928422 -0.0005509 0)
(-0.00883816 -0.000569394 0)
(-0.00837861 -0.000584977 0)
(-0.00790791 -0.000597485 0)
(-0.00742853 -0.00060677 0)
(-0.00694305 -0.000612705 0)
(-0.00645412 -0.000615186 0)
(-0.00596449 -0.000614132 0)
(-0.00547693 -0.000609485 0)
(-0.00499425 -0.000601217 0)
(-0.00451929 -0.000589323 0)
(-0.00405486 -0.000573831 0)
(-0.00360374 -0.000554795 0)
(-0.00316864 -0.0005323 0)
(-0.0027522 -0.000506461 0)
(-0.00235694 -0.000477425 0)
(-0.00198527 -0.000445373 0)
(-0.0016394 -0.00041052 0)
(-0.00132138 -0.000373121 0)
(-0.00103302 -0.000333474 0)
(-0.000775846 -0.000291926 0)
(-0.000551103 -0.000248887 0)
(-0.000359658 -0.000204847 0)
(-0.000201947 -0.000160396 0)
(-7.78916e-05 -0.000116267 0)
(1.32155e-05 -7.33822e-05 0)
(7.28507e-05 -3.29368e-05 0)
(0.000103444 3.49372e-06 0)
(0.000108609 3.3809e-05 0)
(9.33269e-05 5.5214e-05 0)
(6.41873e-05 6.40568e-05 0)
(3.08823e-05 5.58532e-05 0)
(7.33889e-06 2.62547e-05 0)
(4.54541e-06 -3.62388e-05 0)
(9.44788e-06 -4.65612e-05 0)
(-6.32622e-07 -1.67725e-05 0)
(-3.748e-05 3.85558e-05 0)
(-0.000108864 0.000109598 0)
(-0.000219427 0.000189283 0)
(-0.000371692 0.000272578 0)
(-0.000566545 0.000356 0)
(-0.000803615 0.000437185 0)
(-0.0010816 0.000514567 0)
(-0.00139856 0.00058713 0)
(-0.00175207 0.000654264 0)
(-0.00213945 0.00071564 0)
(-0.00255782 0.000771124 0)
(-0.00300421 0.000820719 0)
(-0.00347566 0.000864523 0)
(-0.00396921 0.000902702 0)
(-0.00448196 0.000935463 0)
(-0.00501111 0.000963033 0)
(-0.00555396 0.000985648 0)
(-0.00610789 0.00100355 0)
(-0.00667041 0.00101697 0)
(-0.00723913 0.00102613 0)
(-0.00781175 0.00103124 0)
(-0.0083861 0.00103249 0)
(-0.00896007 0.00103005 0)
(-0.00953165 0.00102409 0)
(-0.0100989 0.00101472 0)
(-0.0106599 0.00100207 0)
(-0.0112129 0.000986242 0)
(-0.0117561 0.00096731 0)
(-0.0122877 0.000945347 0)
(-0.0128062 0.000920409 0)
(-0.0133097 0.000892541 0)
(-0.0137967 0.000861782 0)
(-0.0142656 0.000828161 0)
(-0.0147148 0.000791707 0)
(-0.0151427 0.000752448 0)
(-0.0155478 0.000710415 0)
(-0.0159285 0.000665639 0)
(-0.0162833 0.000618164 0)
(-0.0166108 0.000568036 0)
(-0.0169095 0.000515318 0)
(-0.0171781 0.000460085 0)
(-0.0174152 0.000402427 0)
(-0.0176196 0.000342455 0)
(-0.0177899 0.000280296 0)
(-0.0179252 0.0002161 0)
(-0.0180243 0.000150039 0)
(-0.0180863 8.23064e-05 0)
(-0.0181105 1.3122e-05 0)
(-0.018096 -5.72707e-05 0)
(-0.0180425 -0.000128604 0)
(-0.0179494 -0.000200586 0)
(-0.0178166 -0.000272903 0)
(-0.017644 -0.000345215 0)
(-0.0174317 -0.000417166 0)
(-0.0171802 -0.000488379 0)
(-0.0168899 -0.00055846 0)
(-0.0165616 -0.000627001 0)
(-0.0161962 -0.000693584 0)
(-0.0157951 -0.000757781 0)
(-0.0153597 -0.000819163 0)
(-0.0148915 -0.000877298 0)
(-0.0143926 -0.000931759 0)
(-0.0138649 -0.000982129 0)
(-0.013311 -0.001028 0)
(-0.0127333 -0.00106898 0)
(-0.0121346 -0.00110471 0)
(-0.0115179 -0.00113485 0)
(-0.0108861 -0.00115907 0)
(-0.0102427 -0.00117711 0)
(-0.00959102 -0.00118872 0)
(-0.00893456 -0.00119371 0)
(-0.00827693 -0.00119193 0)
(-0.00762182 -0.00118328 0)
(-0.00697293 -0.00116769 0)
(-0.00633398 -0.00114517 0)
(-0.00570868 -0.00111578 0)
(-0.00510067 -0.00107963 0)
(-0.00451352 -0.00103688 0)
(-0.00395069 -0.000987774 0)
(-0.00341548 -0.000932596 0)
(-0.002911 -0.000871708 0)
(-0.00244016 -0.000805538 0)
(-0.00200557 -0.000734593 0)
(-0.00160956 -0.000659464 0)
(-0.00125409 -0.000580841 0)
(-0.000940688 -0.000499536 0)
(-0.000670418 -0.000416507 0)
(-0.000443763 -0.000332901 0)
(-0.000260541 -0.000250115 0)
(-0.000119785 -0.00016987 0)
(-1.95979e-05 -9.43239e-05 0)
(4.30298e-05 -2.62212e-05 0)
(7.24228e-05 3.0932e-05 0)
(7.43675e-05 7.26627e-05 0)
(5.63116e-05 9.33704e-05 0)
(2.88802e-05 8.62937e-05 0)
(7.21718e-06 4.35529e-05 0)
(1.85257e-06 -3.9037e-05 0)
(-5.30378e-06 -3.62792e-05 0)
(-3.92149e-05 1.96092e-05 0)
(-0.000109152 0.000109935 0)
(-0.000221905 0.000221972 0)
(-0.000381913 0.000346274 0)
(-0.000591582 0.000475908 0)
(-0.000851685 0.000605912 0)
(-0.00116173 0.000732795 0)
(-0.00152024 0.000854146 0)
(-0.00192503 0.000968351 0)
(-0.00237336 0.00107438 0)
(-0.00286216 0.00117165 0)
(-0.00338812 0.00125985 0)
(-0.00394781 0.00133891 0)
(-0.00453771 0.00140894 0)
(-0.00515436 0.00147012 0)
(-0.00579431 0.00152273 0)
(-0.00645419 0.0015671 0)
(-0.00713074 0.00160355 0)
(-0.00782081 0.00163245 0)
(-0.00852134 0.00165413 0)
(-0.00922942 0.00166894 0)
(-0.00994223 0.00167718 0)
(-0.0106571 0.00167916 0)
(-0.0113713 0.00167513 0)
(-0.0120825 0.00166534 0)
(-0.0127882 0.00164999 0)
(-0.013486 0.00162928 0)
(-0.0141738 0.00160336 0)
(-0.0148492 0.00157236 0)
(-0.0155101 0.0015364 0)
(-0.0161545 0.00149557 0)
(-0.0167801 0.00144996 0)
(-0.0173851 0.00139962 0)
(-0.0179673 0.00134461 0)
(-0.0185249 0.00128499 0)
(-0.0190558 0.00122082 0)
(-0.0195581 0.00115214 0)
(-0.0200299 0.00107902 0)
(-0.0204695 0.00100153 0)
(-0.0208749 0.000919772 0)
(-0.0212445 0.000833841 0)
(-0.0215765 0.00074387 0)
(-0.0218692 0.000650015 0)
(-0.0221212 0.000552459 0)
(-0.022331 0.000451417 0)
(-0.0224971 0.000347134 0)
(-0.0226184 0.000239895 0)
(-0.0226937 0.000130019 0)
(-0.022722 1.78621e-05 0)
(-0.0227026 -9.61802e-05 0)
(-0.0226348 -0.000211674 0)
(-0.0225181 -0.000328148 0)
(-0.0223524 -0.000445094 0)
(-0.0221375 -0.000561971 0)
(-0.0218736 -0.000678203 0)
(-0.0215613 -0.000793187 0)
(-0.0212013 -0.000906293 0)
(-0.0207944 -0.00101687 0)
(-0.0203419 -0.00112425 0)
(-0.0198453 -0.00122775 0)
(-0.0193065 -0.00132669 0)
(-0.0187274 -0.00142038 0)
(-0.0181105 -0.00150814 0)
(-0.0174582 -0.00158931 0)
(-0.0167735 -0.00166324 0)
(-0.0160595 -0.00172932 0)
(-0.0153196 -0.00178697 0)
(-0.0145574 -0.00183563 0)
(-0.0137767 -0.00187483 0)
(-0.0129813 -0.00190412 0)
(-0.0121756 -0.00192313 0)
(-0.0113638 -0.00193155 0)
(-0.0105502 -0.00192914 0)
(-0.00973932 -0.00191574 0)
(-0.00893568 -0.00189128 0)
(-0.00814379 -0.00185575 0)
(-0.00736813 -0.00180927 0)
(-0.00661312 -0.001752 0)
(-0.00588308 -0.00168424 0)
(-0.00518218 -0.00160637 0)
(-0.00451441 -0.00151887 0)
(-0.00388352 -0.00142233 0)
(-0.00329297 -0.00131746 0)
(-0.00274591 -0.00120508 0)
(-0.00224509 -0.00108617 0)
(-0.00179284 -0.000961848 0)
(-0.00139094 -0.000833437 0)
(-0.00104062 -0.00070248 0)
(-0.000742413 -0.000570805 0)
(-0.000496078 -0.000440597 0)
(-0.000300484 -0.000314502 0)
(-0.000153469 -0.000195758 0)
(-5.1681e-05 -8.83623e-05 0)
(9.59173e-06 2.72281e-06 0)
(3.6548e-05 7.13371e-05 0)
(3.70556e-05 0.00010993 0)
(2.19321e-05 0.000109387 0)
(6.03641e-06 5.8263e-05 0)
(-1.12492e-06 -3.33804e-05 0)
(-2.21093e-05 -5.11712e-06 0)
(-8.34221e-05 8.69635e-05 0)
(-0.000190806 0.000221175 0)
(-0.000349425 0.000382353 0)
(-0.000563116 0.000558974 0)
(-0.000833835 0.000742377 0)
(-0.00116201 0.000926186 0)
(-0.00154689 0.00110579 0)
(-0.00198675 0.00127792 0)
(-0.00247913 0.0014403 0)
(-0.003021 0.00159146 0)
(-0.00360897 0.00173046 0)
(-0.00423936 0.00185682 0)
(-0.00490832 0.00197035 0)
(-0.00561194 0.00207112 0)
(-0.00634627 0.00215934 0)
(-0.00710742 0.00223534 0)
(-0.00789154 0.00229951 0)
(-0.00869489 0.0023523 0)
(-0.00951383 0.00239418 0)
(-0.0103448 0.00242561 0)
(-0.0111845 0.00244704 0)
(-0.0120295 0.00245891 0)
(-0.0128767 0.00246161 0)
(-0.0137231 0.00245553 0)
(-0.0145657 0.00244099 0)
(-0.0154016 0.00241829 0)
(-0.0162281 0.00238769 0)
(-0.0170425 0.00234943 0)
(-0.0178421 0.00230369 0)
(-0.0186244 0.00225065 0)
(-0.0193869 0.00219044 0)
(-0.0201272 0.00212319 0)
(-0.0208427 0.002049 0)
(-0.0215311 0.00196796 0)
(-0.0221901 0.00188016 0)
(-0.0228174 0.00178568 0)
(-0.0234107 0.00168462 0)
(-0.0239678 0.00157708 0)
(-0.0244866 0.00146317 0)
(-0.0249648 0.00134305 0)
(-0.0254004 0.00121688 0)
(-0.0257915 0.00108485 0)
(-0.0261361 0.000947201 0)
(-0.0264324 0.000804212 0)
(-0.0266788 0.000656203 0)
(-0.0268736 0.00050354 0)
(-0.0270155 0.000346643 0)
(-0.027103 0.00018598 0)
(-0.0271351 2.20771e-05 0)
(-0.027111 -0.000144488 0)
(-0.0270298 -0.000313083 0)
(-0.026891 -0.000483022 0)
(-0.0266945 -0.000653567 0)
(-0.0264402 -0.000823932 0)
(-0.0261284 -0.000993285 0)
(-0.0257596 -0.00116075 0)
(-0.0253346 -0.00132543 0)
(-0.0248547 -0.00148637 0)
(-0.0243213 -0.00164262 0)
(-0.0237361 -0.00179319 0)
(-0.0231012 -0.0019371 0)
(-0.0224191 -0.00207337 0)
(-0.0216925 -0.00220102 0)
(-0.0209245 -0.00231909 0)
(-0.0201183 -0.00242668 0)
(-0.0192777 -0.00252288 0)
(-0.0184065 -0.00260687 0)
(-0.0175089 -0.00267787 0)
(-0.0165894 -0.00273518 0)
(-0.0156526 -0.00277818 0)
(-0.0147032 -0.00280633 0)
(-0.0137463 -0.00281919 0)
(-0.0127869 -0.00281643 0)
(-0.0118302 -0.00279782 0)
(-0.0108814 -0.00276326 0)
(-0.00994579 -0.00271277 0)
(-0.0090285 -0.0026465 0)
(-0.00813466 -0.00256472 0)
(-0.00726926 -0.00246786 0)
(-0.00643709 -0.00235648 0)
(-0.00564276 -0.0022313 0)
(-0.00489058 -0.00209319 0)
(-0.00418452 -0.00194318 0)
(-0.00352819 -0.0017825 0)
(-0.00292473 -0.00161256 0)
(-0.00237677 -0.00143502 0)
(-0.00188636 -0.00125177 0)
(-0.00145488 -0.00106505 0)
(-0.00108294 -0.000877451 0)
(-0.00077031 -0.00069204 0)
(-0.000515792 -0.000512467 0)
(-0.000317105 -0.000343105 0)
(-0.000170754 -0.000189238 0)
(-7.18884e-05 -5.72783e-05 0)
(-1.41926e-05 4.49707e-05 0)
(1.02837e-05 0.000108084 0)
(1.19593e-05 0.000120721 0)
(4.30085e-06 6.83531e-05 0)
(-4.14587e-06 -1.86621e-05 0)
(-3.97619e-05 4.88685e-05 0)
(-0.000130425 0.000188223 0)
(-0.000277867 0.000375709 0)
(-0.000485237 0.000594272 0)
(-0.000755449 0.000830687 0)
(-0.00108976 0.0010748 0)
(-0.00148804 0.00131896 0)
(-0.00194913 0.00155751 0)
(-0.00247095 0.00178635 0)
(-0.00305074 0.00200257 0)
(-0.00368517 0.00220419 0)
(-0.00437051 0.00238995 0)
(-0.00510277 0.00255913 0)
(-0.00587774 0.00271141 0)
(-0.00669114 0.0028468 0)
(-0.00753865 0.00296551 0)
(-0.00841596 0.00306791 0)
(-0.00931882 0.00315447 0)
(-0.0102431 0.00322573 0)
(-0.0111846 0.00328226 0)
(-0.0121395 0.00332466 0)
(-0.013104 0.0033535 0)
(-0.0140743 0.00336932 0)
(-0.0150469 0.00337265 0)
(-0.0160182 0.00336397 0)
(-0.016985 0.00334372 0)
(-0.0179439 0.00331229 0)
(-0.0188918 0.00327003 0)
(-0.0198257 0.00321724 0)
(-0.0207425 0.00315419 0)
(-0.0216392 0.00308111 0)
(-0.0225131 0.00299819 0)
(-0.0233612 0.00290559 0)
(-0.0241808 0.00280348 0)
(-0.0249693 0.00269198 0)
(-0.0257238 0.00257122 0)
(-0.0264418 0.00244134 0)
(-0.0271207 0.00230247 0)
(-0.027758 0.00215476 0)
(-0.0283511 0.00199838 0)
(-0.0288977 0.00183355 0)
(-0.0293955 0.0016605 0)
(-0.0298421 0.00147952 0)
(-0.0302355 0.00129094 0)
(-0.0305736 0.00109514 0)
(-0.0308544 0.000892579 0)
(-0.0310763 0.000683757 0)
(-0.0312375 0.000469253 0)
(-0.0313367 0.000249714 0)
(-0.0313726 2.58565e-05 0)
(-0.0313442 -0.000201528 0)
(-0.0312507 -0.000431578 0)
(-0.0310916 -0.000663361 0)
(-0.0308666 -0.000895876 0)
(-0.0305757 -0.00112806 0)
(-0.0302193 -0.00135878 0)
(-0.029798 -0.00158686 0)
(-0.0293127 -0.00181107 0)
(-0.0287649 -0.00203015 0)
(-0.028156 -0.0022428 0)
(-0.0274883 -0.0024477 0)
(-0.026764 -0.00264353 0)
(-0.0259858 -0.00282896 0)
(-0.025157 -0.00300268 0)
(-0.0242809 -0.00316342 0)
(-0.0233613 -0.00330992 0)
(-0.0224023 -0.00344102 0)
(-0.0214083 -0.00355558 0)
(-0.0203841 -0.00365257 0)
(-0.0193346 -0.00373106 0)
(-0.018265 -0.0037902 0)
(-0.0171807 -0.00382929 0)
(-0.0160873 -0.00384773 0)
(-0.0149906 -0.00384509 0)
(-0.0138964 -0.00382107 0)
(-0.0128104 -0.00377554 0)
(-0.0117386 -0.00370853 0)
(-0.0106869 -0.00362027 0)
(-0.00966083 -0.00351113 0)
(-0.00866613 -0.0033817 0)
(-0.00770814 -0.00323276 0)
(-0.00679201 -0.00306529 0)
(-0.00592256 -0.00288048 0)
(-0.00510424 -0.00267976 0)
(-0.00434106 -0.0024648 0)
(-0.00363653 -0.00223752 0)
(-0.00299359 -0.00200015 0)
(-0.00241452 -0.00175528 0)
(-0.00190089 -0.00150586 0)
(-0.00145343 -0.00125534 0)
(-0.00107198 -0.00100772 0)
(-0.000755374 -0.000767685 0)
(-0.000501348 -0.00054078 0)
(-0.000306423 -0.000333559 0)
(-0.000165811 -0.000153845 0)
(-7.3308e-05 -1.09895e-05 0)
(-2.1147e-05 8.38588e-05 0)
(2.62933e-07 0.000117403 0)
(2.30413e-06 7.26831e-05 0)
(-7.10162e-06 5.26477e-06 0)
(-5.75734e-05 0.000126592 0)
(-0.000178441 0.00032499 0)
(-0.000367302 0.000575562 0)
(-0.000625063 0.00085992 0)
(-0.00095351 0.00116352 0)
(-0.001353 0.00147498 0)
(-0.00182269 0.00178557 0)
(-0.00236085 0.00208872 0)
(-0.00296499 0.00237955 0)
(-0.00363194 0.00265455 0)
(-0.00435806 0.00291126 0)
(-0.00513928 0.00314809 0)
(-0.00597128 0.00336407 0)
(-0.00684954 0.00355876 0)
(-0.00776945 0.00373206 0)
(-0.00872633 0.00388418 0)
(-0.00971553 0.00401552 0)
(-0.0107324 0.00412662 0)
(-0.0117725 0.00421812 0)
(-0.0128313 0.00429068 0)
(-0.0139045 0.00434502 0)
(-0.014988 0.00438183 0)
(-0.0160775 0.00440178 0)
(-0.0171692 0.00440552 0)
(-0.0182593 0.00439364 0)
(-0.0193439 0.00436669 0)
(-0.0204195 0.00432516 0)
(-0.0214826 0.00426948 0)
(-0.0225297 0.00420006 0)
(-0.0235574 0.00411722 0)
(-0.0245625 0.00402126 0)
(-0.0255418 0.00391244 0)
(-0.026492 0.00379098 0)
(-0.0274102 0.00365708 0)
(-0.0282933 0.00351093 0)
(-0.0291382 0.00335271 0)
(-0.029942 0.0031826 0)
(-0.0307019 0.0030008 0)
(-0.0314151 0.0028075 0)
(-0.0320787 0.00260295 0)
(-0.0326902 0.00238744 0)
(-0.0332468 0.00216129 0)
(-0.0337462 0.00192488 0)
(-0.0341859 0.00167866 0)
(-0.0345637 0.00142314 0)
(-0.0348774 0.00115891 0)
(-0.0351252 0.000886642 0)
(-0.0353052 0.000607091 0)
(-0.0354159 0.000321102 0)
(-0.0354559 2.96125e-05 0)
(-0.0354241 -0.00026635 0)
(-0.0353197 -0.000565668 0)
(-0.035142 -0.00086713 0)
(-0.0348908 -0.00116944 0)
(-0.0345662 -0.00147123 0)
(-0.0341685 -0.00177103 0)
(-0.0336984 -0.00206734 0)
(-0.033157 -0.00235856 0)
(-0.0325459 -0.00264307 0)
(-0.0318668 -0.0029192 0)
(-0.0311219 -0.00318526 0)
(-0.030314 -0.00343954 0)
(-0.0294461 -0.00368034 0)
(-0.0285214 -0.00390599 0)
(-0.027544 -0.00411484 0)
(-0.0265179 -0.0043053 0)
(-0.0254477 -0.00447586 0)
(-0.0243382 -0.00462508 0)
(-0.0231947 -0.00475163 0)
(-0.0220226 -0.00485432 0)
(-0.0208276 -0.00493207 0)
(-0.0196157 -0.00498397 0)
(-0.0183931 -0.00500928 0)
(-0.017166 -0.00500743 0)
(-0.0159409 -0.00497806 0)
(-0.0147243 -0.00492102 0)
(-0.0135224 -0.00483634 0)
(-0.0123419 -0.00472432 0)
(-0.011189 -0.00458548 0)
(-0.0100697 -0.00442057 0)
(-0.00899017 -0.00423062 0)
(-0.0079559 -0.0040169 0)
(-0.00697224 -0.00378098 0)
(-0.00604406 -0.0035247 0)
(-0.00517577 -0.00325022 0)
(-0.00437125 -0.00296004 0)
(-0.00363372 -0.00265703 0)
(-0.00296574 -0.00234448 0)
(-0.00236906 -0.00202615 0)
(-0.00184461 -0.00170636 0)
(-0.00139236 -0.00139009 0)
(-0.00101126 -0.00108309 0)
(-0.000699182 -0.00079204 0)
(-0.000452791 -0.000524754 0)
(-0.00026752 -0.000290381 0)
(-0.000137451 -9.96987e-05 0)
(-5.52064e-05 3.46235e-05 0)
(-1.22958e-05 9.76603e-05 0)
(2.17815e-07 7.06578e-05 0)
(-9.94934e-06 3.83082e-05 0)
(-7.51569e-05 0.000228277 0)
(-0.000226386 0.000497897 0)
(-0.000457134 0.000821707 0)
(-0.000765999 0.00118046 0)
(-0.00115351 0.00155866 0)
(-0.00161899 0.00194397 0)
(-0.00216075 0.00232682 0)
(-0.00277639 0.00269983 0)
(-0.00346288 0.00305747 0)
(-0.00421663 0.00339566 0)
(-0.00503358 0.00371155 0)
(-0.00590935 0.0040032 0)
(-0.00683926 0.00426942 0)
(-0.0078185 0.00450962 0)
(-0.00884212 0.00472362 0)
(-0.00990515 0.00491162 0)
(-0.0110026 0.00507404 0)
(-0.0121296 0.00521147 0)
(-0.0132811 0.00532464 0)
(-0.0144526 0.00541433 0)
(-0.0156393 0.00548134 0)
(-0.0168366 0.00552651 0)
(-0.0180402 0.00555062 0)
(-0.0192457 0.00555444 0)
(-0.020449 0.00553868 0)
(-0.0216461 0.00550399 0)
(-0.0228329 0.00545098 0)
(-0.0240056 0.00538018 0)
(-0.0251604 0.00529206 0)
(-0.0262938 0.00518704 0)
(-0.027402 0.00506549 0)
(-0.0284815 0.00492774 0)
(-0.029529 0.00477406 0)
(-0.0305409 0.00460472 0)
(-0.031514 0.00441996 0)
(-0.032445 0.00422001 0)
(-0.0333306 0.00400513 0)
(-0.0341677 0.00377554 0)
(-0.0349532 0.00353155 0)
(-0.0356841 0.00327347 0)
(-0.0363574 0.00300166 0)
(-0.0369704 0.00271654 0)
(-0.0375204 0.00241862 0)
(-0.0380046 0.00210845 0)
(-0.0384207 0.00178671 0)
(-0.0387664 0.00145413 0)
(-0.0390395 0.00111157 0)
(-0.0392381 0.000759975 0)
(-0.0393605 0.000400422 0)
(-0.0394053 3.4083e-05 0)
(-0.0393712 -0.000337753 0)
(-0.0392574 -0.000713684 0)
(-0.0390631 -0.0010922 0)
(-0.0387882 -0.00147168 0)
(-0.0384326 -0.00185041 0)
(-0.0379968 -0.00222658 0)
(-0.0374815 -0.0025983 0)
(-0.0368881 -0.00296359 0)
(-0.0362179 -0.00332044 0)
(-0.0354732 -0.00366676 0)
(-0.0346562 -0.00400046 0)
(-0.03377 -0.00431943 0)
(-0.0328176 -0.00462154 0)
(-0.031803 -0.00490474 0)
(-0.0307301 -0.00516697 0)
(-0.0296035 -0.00540626 0)
(-0.0284282 -0.00562074 0)
(-0.0272094 -0.00580862 0)
(-0.0259527 -0.00596827 0)
(-0.0246641 -0.0060982 0)
(-0.0233499 -0.00619709 0)
(-0.0220164 -0.0062638 0)
(-0.0206703 -0.00629743 0)
(-0.0193186 -0.00629727 0)
(-0.0179681 -0.00626288 0)
(-0.0166258 -0.00619407 0)
(-0.0152987 -0.00609092 0)
(-0.0139939 -0.00595379 0)
(-0.012718 -0.00578334 0)
(-0.0114779 -0.00558052 0)
(-0.0102799 -0.00534662 0)
(-0.00913019 -0.00508325 0)
(-0.00803449 -0.00479236 0)
(-0.00699811 -0.00447625 0)
(-0.00602586 -0.00413762 0)
(-0.00512196 -0.00377958 0)
(-0.00428995 -0.00340568 0)
(-0.00353267 -0.00301995 0)
(-0.00285213 -0.00262699 0)
(-0.00224947 -0.00223204 0)
(-0.00172486 -0.00184105 0)
(-0.00127747 -0.00146085 0)
(-0.000905363 -0.00109923 0)
(-0.00060549 -0.000765208 0)
(-0.000373615 -0.000469164 0)
(-0.000204238 -0.000223164 0)
(-9.05007e-05 -4.11831e-05 0)
(-2.51627e-05 6.05536e-05 0)
(-1.86094e-06 6.20409e-05 0)
(-1.2671e-05 8.02519e-05 0)
(-9.2309e-05 0.000353712 0)
(-0.000273603 0.000706939 0)
(-0.000546104 0.00111437 0)
(-0.000906119 0.00155627 0)
(-0.00135286 0.00201655 0)
(-0.00188453 0.00248221 0)
(-0.00249848 0.00294297 0)
(-0.00319158 0.00339087 0)
(-0.00396018 0.00381981 0)
(-0.00480018 0.00422526 0)
(-0.00570709 0.004604 0)
(-0.00667614 0.00495379 0)
(-0.00770233 0.00527325 0)
(-0.00878052 0.00556164 0)
(-0.00990545 0.00581873 0)
(-0.0110719 0.00604468 0)
(-0.0122745 0.00623995 0)
(-0.013508 0.00640518 0)
(-0.0147674 0.00654117 0)
(-0.0160475 0.00664882 0)
(-0.0173435 0.00672903 0)
(-0.0186503 0.00678276 0)
(-0.0199635 0.00681092 0)
(-0.0212782 0.0068144 0)
(-0.0225901 0.00679401 0)
(-0.0238948 0.00675054 0)
(-0.0251881 0.00668468 0)
(-0.0264657 0.00659706 0)
(-0.0277237 0.00648826 0)
(-0.028958 0.00635877 0)
(-0.0301648 0.00620904 0)
(-0.0313403 0.00603945 0)
(-0.0324807 0.00585037 0)
(-0.0335824 0.00564211 0)
(-0.0346417 0.00541499 0)
(-0.0356551 0.00516929 0)
(-0.0366191 0.00490532 0)
(-0.0375303 0.00462341 0)
(-0.0383853 0.00432391 0)
(-0.039181 0.00400723 0)
(-0.039914 0.00367383 0)
(-0.0405815 0.00332423 0)
(-0.0411804 0.00295905 0)
(-0.041708 0.00257901 0)
(-0.0421616 0.00218492 0)
(-0.0425386 0.00177769 0)
(-0.042837 0.00135838 0)
(-0.0430545 0.000928161 0)
(-0.0431893 0.00048833 0)
(-0.0432399 4.03274e-05 0)
(-0.0432049 -0.000414275 0)
(-0.0430834 -0.000873772 0)
(-0.0428747 -0.00133632 0)
(-0.0425785 -0.00179997 0)
(-0.0421948 -0.00226261 0)
(-0.0417241 -0.00272207 0)
(-0.0411672 -0.00317605 0)
(-0.0405254 -0.00362215 0)
(-0.0398003 -0.00405794 0)
(-0.0389942 -0.0044809 0)
(-0.0381097 -0.00488849 0)
(-0.0371497 -0.00527816 0)
(-0.0361179 -0.00564735 0)
(-0.0350181 -0.00599355 0)
(-0.0338549 -0.0063143 0)
(-0.032633 -0.00660721 0)
(-0.0313578 -0.00687002 0)
(-0.0300348 -0.00710057 0)
(-0.0286702 -0.00729689 0)
(-0.0272703 -0.00745718 0)
(-0.0258417 -0.00757984 0)
(-0.0243914 -0.00766351 0)
(-0.0229266 -0.00770708 0)
(-0.0214546 -0.00770972 0)
(-0.0199828 -0.0076709 0)
(-0.0185189 -0.00759039 0)
(-0.0170702 -0.00746828 0)
(-0.0156443 -0.00730503 0)
(-0.0142485 -0.00710145 0)
(-0.0128901 -0.0068587 0)
(-0.0115759 -0.00657835 0)
(-0.0103125 -0.00626235 0)
(-0.0091061 -0.00591308 0)
(-0.0079625 -0.00553334 0)
(-0.00688687 -0.00512639 0)
(-0.00588377 -0.00469596 0)
(-0.00495711 -0.00424632 0)
(-0.00411002 -0.0037823 0)
(-0.0033448 -0.00330935 0)
(-0.00266287 -0.00283363 0)
(-0.00206466 -0.00236208 0)
(-0.00154961 -0.00190256 0)
(-0.00111609 -0.001464 0)
(-0.000761392 -0.0010565 0)
(-0.000481701 -0.000691607 0)
(-0.000272026 -0.000382532 0)
(-0.000126105 -0.000144347 0)
(-3.79925e-05 5.71312e-06 0)
(-3.87953e-06 4.68167e-05 0)
(-1.52623e-05 0.00013081 0)
(-0.000108928 0.00050244 0)
(-0.00031972 0.000951697 0)
(-0.000633445 0.00145323 0)
(-0.00104418 0.00198719 0)
(-0.00154982 0.00253711 0)
(-0.00214738 0.00308958 0)
(-0.00283324 0.00363387 0)
(-0.00360342 0.00416153 0)
(-0.00445362 0.00466607 0)
(-0.00537916 0.00514258 0)
(-0.00637508 0.00558753 0)
(-0.00743621 0.00599846 0)
(-0.00855718 0.00637382 0)
(-0.0097325 0.00671275 0)
(-0.0109566 0.00701497 0)
(-0.012224 0.00728064 0)
(-0.013529 0.00751022 0)
(-0.0148663 0.00770444 0)
(-0.0162303 0.00786417 0)
(-0.0176157 0.00799039 0)
(-0.0190173 0.00808415 0)
(-0.0204299 0.0081465 0)
(-0.0218487 0.00817848 0)
(-0.0232687 0.0081811 0)
(-0.0246852 0.00815529 0)
(-0.0260935 0.00810195 0)
(-0.0274891 0.00802187 0)
(-0.0288677 0.0079158 0)
(-0.0302248 0.00778439 0)
(-0.0315562 0.00762822 0)
(-0.0328579 0.00744782 0)
(-0.0341256 0.00724366 0)
(-0.0353555 0.00701615 0)
(-0.0365436 0.0067657 0)
(-0.037686 0.00649266 0)
(-0.0387789 0.00619741 0)
(-0.0398186 0.00588032 0)
(-0.0408014 0.00554178 0)
(-0.0417238 0.00518225 0)
(-0.0425824 0.0048022 0)
(-0.0433736 0.00440222 0)
(-0.0440942 0.00398294 0)
(-0.0447412 0.00354511 0)
(-0.0453114 0.0030896 0)
(-0.0458022 0.00261738 0)
(-0.0462107 0.00212956 0)
(-0.0465346 0.00162741 0)
(-0.0467717 0.00111232 0)
(-0.04692 0.000585852 0)
(-0.0469778 4.97228e-05 0)
(-0.0469436 -0.000494195 0)
(-0.0468165 -0.00104387 0)
(-0.0465957 -0.00159711 0)
(-0.0462808 -0.00215159 0)
(-0.0458719 -0.00270483 0)
(-0.0453694 -0.00325421 0)
(-0.0447742 -0.00379703 0)
(-0.0440876 -0.00433045 0)
(-0.0433115 -0.00485157 0)
(-0.042448 -0.00535742 0)
(-0.0415 -0.00584497 0)