/*--------------------------------*- C++ -*----------------------------------*\
| =========                 |                                                 |
| \\      /  F ield         | OpenFOAM: The Open Source CFD Toolbox           |
|  \\    /   O peration     | Version:  2512                                  |
|   \\  /    A nd           | Website:  www.openfoam.com                      |
|    \\/     M anipulation  |                                                 |
\*---------------------------------------------------------------------------*/
FoamFile
{
    version     2.0;
    format      ascii;
    arch        "LSB;label=32;scalar=64";
    class       volScalarField;
    location    "0.08";
    object      p;
}
// * * * * * * * * * * * * * * * * * * * * * * * * * * * * * * * * * * * * * //

dimensions      [0 2 -2 0 0 0 0];

internalField   nonuniform List<scalar> 
10000
(
7.90291e-10
-3.71449e-05
-0.000113002
-0.000207321
-0.00030695
-0.000408969
-0.00050966
-0.000605868
-0.000694999
-0.000774989
-0.000844299
-0.000901747
-0.000946388
-0.000977512
-0.000994694
-0.000997761
-0.00098667
-0.000961411
-0.000922027
-0.000868654
-0.00080153
-0.000720947
-0.0006272
-0.000520588
-0.000401409
-0.000269969
-0.000126596
2.83563e-05
0.000194532
0.000371605
0.000559277
0.000757247
0.000965186
0.00118274
0.00140956
0.00164533
0.00188973
0.00214245
0.00240311
0.00267131
0.00294667
0.00322877
0.00351725
0.00381166
0.00411154
0.0044164
0.00472572
0.00503901
0.00535574
0.0056754
0.0059974
0.00632116
0.0066461
0.0069716
0.00729706
0.00762189
0.00794546
0.00826713
0.00858626
0.00890217
0.00921421
0.00952169
0.00982396
0.0101203
0.0104102
0.0106927
0.0109673
0.0112333
0.0114899
0.0117364
0.0119723
0.0121968
0.0124093
0.0126092
0.0127958
0.0129685
0.0131269
0.0132703
0.0133983
0.0135105
0.0136066
0.0136862
0.0137493
0.0137957
0.0138254
0.0138386
0.0138357
0.0138171
0.0137836
0.0137363
0.0136766
0.0136062
0.0135274
0.0134431
0.013357
0.0132734
0.013198
0.0131377
0.0131008
0.0130919
-2.01905e-05
-5.53649e-05
-0.000117227
-0.000193649
-0.000276511
-0.000361952
-0.000446859
-0.000528479
-0.000604387
-0.000672617
-0.00073162
-0.000780192
-0.000817378
-0.000842415
-0.000854753
-0.000854051
-0.00084014
-0.00081296
-0.000772514
-0.000718863
-0.00065212
-0.000572467
-0.000480148
-0.000375442
-0.000258608
-0.000129895
1.04305e-05
0.000162059
0.000324651
0.000497886
0.000681484
0.000875172
0.00107864
0.00129155
0.00151356
0.00174436
0.00198362
0.00223104
0.00248626
0.00274888
0.00301852
0.00329478
0.00357727
0.00386557
0.00415922
0.00445772
0.00476057
0.00506728
0.00537734
0.00569022
0.00600536
0.00632219
0.00664011
0.00695855
0.0072769
0.00759457
0.00791096
0.00822544
0.00853736
0.00884609
0.00915095
0.00945129
0.00974648
0.0100359
0.0103188
0.0105945
0.0108625
0.0111219
0.0113722
0.0116126
0.0118426
0.0120615
0.0122687
0.0124637
0.0126458
0.0128145
0.0129693
0.0131097
0.0132354
0.013346
0.0134413
0.013521
0.013585
0.0136334
0.0136662
0.0136837
0.0136863
0.0136745
0.0136494
0.0136119
0.0135634
0.0135057
0.0134409
0.0133716
0.0133012
0.0132332
0.0131722
0.013123
0.013092
0.0130831
-2.68075e-05
-5.86472e-05
-0.000109955
-0.000174667
-0.000246246
-0.000320611
-0.000394763
-0.000466154
-0.000532601
-0.000592246
-0.00064356
-0.000685357
-0.00071671
-0.000736882
-0.000745292
-0.000741498
-0.000725221
-0.000696353
-0.000654885
-0.000600836
-0.000534247
-0.000455213
-0.000363929
-0.000260642
-0.000145584
-1.89653e-05
0.000118978
0.000267969
0.000427707
0.000597895
0.000778261
0.000968535
0.00116842
0.0013776
0.00159576
0.00182257
0.00205774
0.00230092
0.00255177
0.00280992
0.00307497
0.00334655
0.00362425
0.00390765
0.00419629
0.00448968
0.00478734
0.00508877
0.00539349
0.00570095
0.00601062
0.00632192
0.00663426
0.00694708
0.00725979
0.00757182
0.00788255
0.00819137
0.00849764
0.00880072
0.00909997
0.00939474
0.00968441
0.00996833
0.0102459
0.0105163
0.0107791
0.0110335
0.0112788
0.0115145
0.01174
0.0119546
0.0121578
0.012349
0.0125276
0.0126933
0.0128454
0.0129837
0.0131077
0.0132172
0.0133119
0.0133918
0.0134567
0.0135067
0.0135419
0.0135628
0.0135696
0.0135631
0.0135441
0.0135137
0.0134733
0.0134244
0.0133691
0.0133097
0.013249
0.0131901
0.0131365
0.0130921
0.0130611
0.0130466
-8.09839e-06
-4.27906e-05
-9.10681e-05
-0.00014971
-0.000214644
-0.000282121
-0.000349191
-0.000413542
-0.000473233
-0.000526571
-0.000572125
-0.000608732
-0.00063548
-0.000651686
-0.000656806
-0.000650387
-0.000632092
-0.000601753
-0.000559324
-0.000504795
-0.000438182
-0.000359561
-0.000269073
-0.000166899
-5.32281e-05
7.17319e-05
0.000207747
0.000354568
0.000511937
0.000679602
0.000857303
0.00104476
0.00124168
0.00144775
0.00166269
0.00188621
0.00211797
0.00235765
0.00260488
0.00285929
0.00312053
0.00338821
0.00366192
0.00394125
0.00422572
0.00451485
0.00480818
0.00510523
0.00540551
0.0057085
0.00601364
0.00632036
0.00662811
0.00693632
0.00724443
0.00755185
0.00785799
0.00816222
0.00846392
0.00876245
0.00905718
0.00934748
0.00963273
0.0099123
0.0101855
0.0104518
0.0107104
0.0109607
0.0112022
0.0114341
0.011656
0.0118672
0.0120672
0.0122555
0.0124315
0.0125948
0.0127449
0.0128815
0.0130042
0.0131129
0.0132073
0.0132874
0.0133531
0.0134045
0.0134418
0.0134652
0.0134754
0.0134728
0.0134584
0.0134332
0.0133984
0.0133556
0.0133065
0.0132532
0.0131979
0.0131434
0.0130923
0.0130479
0.0130123
0.0129869
3.34504e-05
-1.11739e-05
-6.20609e-05
-0.000118905
-0.000180456
-0.000243631
-0.000305833
-0.000365027
-0.000419497
-0.000467773
-0.000508597
-0.000540885
-0.00056376
-0.000576552
-0.000578741
-0.000569919
-0.000549773
-0.000518095
-0.000474766
-0.000419736
-0.000353023
-0.000274704
-0.000184888
-8.36905e-05
2.875e-05
0.000152239
0.00028654
0.000431416
0.000586653
0.000752035
0.000927322
0.00111223
0.00130647
0.00150974
0.00172178
0.0019423
0.00217099
0.00240749
0.00265145
0.0029025
0.00316028
0.00342443
0.00369453
0.00397016
0.00425085
0.00453613
0.00482554
0.00511863
0.00541491
0.00571387
0.00601494
0.00631757
0.00662121
0.00692531
0.00722933
0.00753268
0.00783477
0.00813496
0.00843263
0.00872717
0.00901795
0.00930435
0.00958576
0.00986153
0.010131
0.0103936
0.0106487
0.0108955
0.0111336
0.0113623
0.011581
0.0117893
0.0119866
0.0121724
0.0123461
0.0125074
0.0126559
0.0127911
0.0129128
0.0130209
0.0131152
0.0131955
0.0132619
0.0133145
0.0133535
0.0133792
0.0133921
0.0133928
0.013382
0.0133609
0.0133304
0.013292
0.0132473
0.0131978
0.0131457
0.0130928
0.0130417
0.0129946
0.0129516
0.0129122
8.83013e-05
3.09759e-05
-2.58577e-05
-8.41044e-05
-0.000144923
-0.000206043
-0.00026532
-0.000321052
-0.000371767
-0.000416193
-0.000453252
-0.000482021
-0.000501712
-0.000511665
-0.000511365
-0.000500443
-0.000478637
-0.000445741
-0.000401587
-0.000346092
-0.000279266
-0.000201176
-0.000111902
-1.15274e-05
9.98321e-05
0.000222004
0.000354775
0.000497938
0.0006513
0.00081466
0.000987786
0.00117041
0.00136225
0.00156304
0.00177251
0.00199038
0.00221632
0.00244999
0.00269102
0.00293908
0.0031938
0.00345481
0.0037217
0.00399403
0.00427134
0.0045532
0.00483915
0.00512874
0.00542148
0.00571687
0.00601436
0.00631339
0.00661345
0.00691399
0.00721446
0.00751429
0.00781288
0.00810959
0.00840382
0.00869495
0.00898237
0.00926546
0.0095436
0.00981616
0.0100825
0.010342
0.010594
0.0108379
0.0110732
0.0112992
0.0115154
0.0117213
0.0119163
0.0121
0.0122719
0.0124316
0.0125787
0.0127128
0.0128338
0.0129415
0.0130356
0.0131162
0.0131833
0.0132369
0.0132773
0.0133048
0.0133199
0.0133231
0.0133152
0.013297
0.0132696
0.0132342
0.0131921
0.0131448
0.0130937
0.0130407
0.0129874
0.0129357
0.0128838
0.012829
0.000149841
7.88758e-05
1.43018e-05
-4.74676e-05
-0.000109653
-0.000170599
-0.000228593
-0.00028233
-0.000330614
-0.000372358
-0.000406631
-0.000432672
-0.000449811
-0.000457453
-0.00045512
-0.00044247
-0.000419252
-0.000385266
-0.000340357
-0.000284447
-0.000217527
-0.000139624
-5.07843e-05
4.89131e-05
0.00015935
0.000280367
0.000411795
0.000553467
0.000705211
0.000866819
0.00103806
0.00121868
0.00140843
0.00160706
0.0018143
0.00202986
0.0022534
0.00248459
0.00272308
0.00296854
0.00322061
0.00347889
0.00374298
0.00401244
0.00428683
0.00456572
0.00484868
0.00513526
0.00542498
0.00571732
0.00601174
0.00630772
0.00660475
0.00690229
0.0071998
0.00749669
0.00779235
0.00808618
0.00837756
0.00866589
0.00895055
0.00923094
0.00950642
0.00977638
0.0100402
0.0102972
0.0105468
0.0107884
0.0110214
0.0112452
0.0114594
0.0116634
0.0118567
0.0120388
0.0122093
0.0123677
0.0125138
0.0126472
0.0127676
0.012875
0.0129691
0.01305
0.0131176
0.0131721
0.0132136
0.0132425
0.0132592
0.0132642
0.0132583
0.0132421
0.0132167
0.0131829
0.0131421
0.0130953
0.0130438
0.0129888
0.0129319
0.0128745
0.0128127
0.0127427
0.000212979
0.000128391
5.53401e-05
-1.12241e-05
-7.62343e-05
-0.00013844
-0.000196478
-0.000249405
-0.000296323
-0.000336364
-0.000368746
-0.000392805
-0.000407979
-0.000413787
-0.000409835
-0.000395799
-0.00037142
-0.000336508
-0.000290942
-0.000234668
-0.000167659
-8.99037e-05
-1.4252e-06
9.77009e-05
0.000207352
0.000327385
0.000457664
0.00059806
0.000748412
0.000908512
0.00107813
0.00125703
0.00144499
0.00164176
0.00184709
0.00206067
0.00228216
0.00251122
0.00274754
0.00299078
0.00324058
0.00349654
0.00375823
0.00402525
0.00429717
0.00457357
0.00485403
0.00513809
0.00542528
0.00571507
0.00600696
0.00630044
0.00659499
0.0068901
0.00718521
0.00747973
0.00777306
0.00806459
0.00835371
0.00863982
0.00892231
0.00920059
0.00947401
0.00974194
0.0100038
0.0102589
0.0105066
0.0107464
0.0109777
0.0112
0.0114127
0.0116153
0.0118074
0.0119884
0.0121578
0.0123154
0.0124608
0.0125937
0.0127138
0.012821
0.0129152
0.0129964
0.0130645
0.0131196
0.013162
0.0131918
0.0132097
0.0132159
0.0132111
0.0131961
0.0131716
0.0131385
0.0130977
0.0130502
0.0129971
0.0129391
0.0128776
0.0128137
0.012742
0.0126571
0.000273856
0.0001762
9.44811e-05
2.2451e-05
-4.62708e-05
-0.000110747
-0.000169859
-0.000222945
-0.000269373
-0.000308503
-0.000339719
-0.00036245
-0.000376221
-0.00038066
-0.000375456
-0.000360318
-0.000335004
-0.000299348
-0.000253256
-0.000196675
-0.000129569
-5.19159e-05
3.62649e-05
0.000134899
0.000243879
0.000363089
0.00049242
0.000631751
0.000780925
0.00093974
0.00110798
0.00128544
0.00147191
0.00166713
0.00187085
0.00208275
0.0023025
0.00252979
0.0027643
0.00300569
0.0032536
0.00350762
0.00376734
0.00403235
0.00430225
0.00457663
0.00485507
0.0051371
0.00542226
0.00571004
0.00599993
0.00629145
0.00658409
0.00687733
0.0071706
0.00746332
0.00775488
0.00804468
0.00833211
0.00861658
0.00889749
0.00917422
0.00944615
0.00971264
0.00997307
0.0102268
0.0104733
0.0107119
0.0109421
0.0111633
0.0113751
0.0115768
0.011768
0.0119483
0.0121172
0.0122743
0.0124193
0.0125519
0.0126719
0.0127792
0.0128735
0.0129549
0.0130234
0.013079
0.0131219
0.0131525
0.013171
0.0131778
0.0131736
0.013159
0.0131346
0.0131012
0.0130596
0.0130106
0.0129548
0.0128931
0.0128264
0.0127557
0.0126742
0.0125756
0.000329627
0.000219658
0.000129391
5.15971e-05
-2.13485e-05
-8.87445e-05
-0.000149665
-0.000203678
-0.000250353
-0.000289231
-0.000319857
-0.000341795
-0.00035467
-0.000358178
-0.000352056
-0.000336065
-0.000310019
-0.00027379
-0.000227296
-0.000170469
-0.000103266
-2.56748e-05
6.22677e-05
0.00016049
0.000268913
0.000387456
0.000516024
0.000654492
0.000802696
0.000960449
0.00112756
0.00130385
0.0014891
0.00168306
0.00188545
0.00209597
0.00231431
0.00254016
0.00277322
0.00301313
0.00325953
0.003512
0.00377015
0.00403359
0.00430193
0.00457476
0.00485166
0.00513217
0.00541581
0.0057021
0.00599055
0.00628066
0.00657195
0.00686387
0.00715587
0.00744735
0.00773771
0.00802634
0.00831266
0.00859606
0.00887595
0.00915171
0.00942271
0.00968831
0.0099479
0.0102009
0.0104466
0.0106846
0.0109142
0.0111349
0.0113462
0.0115475
0.0117384
0.0119184
0.0120871
0.012244
0.012389
0.0125216
0.0126417
0.0127491
0.0128436
0.0129253
0.0129941
0.01305
0.0130933
0.0131242
0.0131429
0.01315
0.0131458
0.013131
0.013106
0.0130717
0.0130285
0.0129772
0.0129182
0.0128522
0.0127801
0.0127026
0.0126118
0.0125004
0.000378069
0.000256658
0.000158172
7.45315e-05
-2.92219e-06
-7.36335e-05
-0.000136851
-0.000192353
-0.000239855
-0.000279025
-0.00030955
-0.000331146
-0.000343543
-0.000346482
-0.000339738
-0.000323138
-0.000296558
-0.000259905
-0.000213099
-0.00015607
-8.87784e-05
-1.12312e-05
7.6524e-05
0.000174426
0.000282422
0.000400454
0.000528427
0.000666212
0.000813648
0.000970565
0.0011368
0.00131217
0.00149647
0.00168943
0.00189077
0.00210022
0.00231746
0.00254221
0.00277415
0.00301294
0.00325819
0.00350951
0.00376651
0.00402883
0.00429607
0.00456783
0.00484368
0.00512317
0.00540582
0.00569115
0.0059787
0.00626797
0.00655846
0.00684963
0.00714091
0.00743171
0.00772143
0.00800946
0.00829522
0.00857813
0.00885756
0.00913291
0.00940353
0.00966881
0.00992811
0.0101808
0.0104264
0.0106643
0.0108938
0.0111145
0.0113258
0.0115272
0.0117182
0.0118983
0.0120672
0.0122243
0.0123695
0.0125024
0.0126227
0.0127304
0.0128252
0.0129072
0.0129762
0.0130323
0.0130758
0.0131067
0.0131254
0.0131322
0.0131277
0.0131121
0.0130861
0.0130502
0.013005
0.0129509
0.0128884
0.0128178
0.0127401
0.012656
0.0125565
0.0124335
0.000417397
0.000285475
0.000179229
8.98398e-05
7.76152e-06
-6.65221e-05
-0.00013237
-0.000189733
-0.000238471
-0.000278366
-0.00030922
-0.000330864
-0.00034311
-0.00034576
-0.000338652
-0.000321676
-0.000294748
-0.000257793
-0.00021074
-0.000153536
-8.61673e-05
-8.65416e-06
7.89641e-05
0.000176646
0.000284353
0.000402024
0.00052956
0.000666832
0.000813696
0.000970004
0.0011356
0.00131031
0.0014939
0.00168612
0.0018867
0.00209536
0.00231182
0.0025358
0.00276697
0.00300498
0.00324945
0.00350001
0.00375629
0.00401792
0.00428453
0.0045557
0.00483099
0.00510996
0.00539214
0.00567707
0.00596427
0.00625325
0.0065435
0.00683447
0.00712559
0.00741627
0.0077059
0.00799389
0.00827967
0.00856263
0.00884216
0.00911765
0.00938846
0.00965396
0.00991354
0.0101666
0.0104125
0.0106508
0.0108808
0.0111019
0.0113137
0.0115156
0.0117072
0.0118878
0.0120572
0.0122149
0.0123605
0.0124939
0.0126147
0.0127228
0.012818
0.0129002
0.0129694
0.0130257
0.0130691
0.0130999
0.0131183
0.0131247
0.0131193
0.0131027
0.0130753
0.0130375
0.0129898
0.0129326
0.0128663
0.0127911
0.0127079
0.0126173
0.0125097
0.0123763
0.000446253
0.000304715
0.000191216
9.62978e-05
9.61406e-06
-6.83858e-05
-0.000137085
-0.000196558
-0.000246817
-0.000287767
-0.000319301
-0.000341306
-0.000353662
-0.00035626
-0.000349015
-0.00033186
-0.000304734
-0.000267573
-0.000220329
-0.000162981
-9.55427e-05
-1.8039e-05
6.95075e-05
0.000167073
0.000274618
0.000392069
0.00051932
0.000656254
0.000802747
0.000958665
0.00112386
0.00129813
0.00148127
0.001673
0.00187308
0.00208126
0.00229726
0.00252078
0.00275151
0.00298909
0.00323317
0.00348336
0.00373934
0.00400074
0.00426717
0.00453823
0.00481346
0.00509242
0.00537467
0.00565972
0.00594712
0.00623635
0.00652691
0.00681824
0.00710975
0.00740085
0.00769095
0.00797947
0.00826581
0.00854939
0.00882959
0.00910578
0.00937733
0.0096436
0.00990399
0.0101579
0.0104047
0.0106439
0.0108749
0.011097
0.0113097
0.0115126
0.0117051
0.0118866
0.0120568
0.0122154
0.0123618
0.0124959
0.0126173
0.0127259
0.0128216
0.0129041
0.0129736
0.0130299
0.0130732
0.0131038
0.0131217
0.0131273
0.013121
0.013103
0.0130739
0.0130339
0.0129835
0.012923
0.0128528
0.012773
0.0126844
0.0125877
0.0124727
0.0123298
0.000463637
0.000313291
0.000193021
9.28276e-05
1.6572e-06
-8.00722e-05
-0.000151744
-0.000213515
-0.000265517
-0.000307766
-0.000340221
-0.000362819
-0.000375514
-0.000378279
-0.000371088
-0.000353905
-0.000326685
-0.000289393
-0.000242015
-0.000184558
-0.000117051
-3.95109e-05
4.8047e-05
0.0001456
0.000253098
0.00037046
0.00049758
0.000634356
0.00078068
0.000936425
0.00110143
0.00127551
0.00145842
0.00164992
0.00184979
0.00205778
0.00227362
0.00249701
0.00272763
0.00296514
0.00320919
0.00345944
0.00371555
0.00397716
0.00424388
0.00451529
0.00479095
0.00507042
0.00535324
0.00563896
0.00592709
0.00621712
0.00650853
0.00680074
0.00709319
0.00738527
0.0076764
0.00796599
0.00825347
0.00853824
0.00881966
0.00909711
0.00936995
0.00963756
0.00989931
0.0101546
0.0104029
0.0106435
0.0108759
0.0110994
0.0113136
0.0115179
0.0117116
0.0118945
0.0120659
0.0122255
0.012373
0.012508
0.0126303
0.0127396
0.0128358
0.0129188
0.0129885
0.0130449
0.0130881
0.0131183
0.0131356
0.0131404
0.0131328
0.0131134
0.0130823
0.01304
0.0129868
0.0129229
0.0128488
0.0127643
0.0126706
0.0125682
0.0124462
0.0122947
0.000468766
0.000310344
0.00018375
7.85299e-05
-1.69643e-05
-0.000102347
-0.000177035
-0.000241244
-0.000295162
-0.000338874
-0.000372411
-0.000395785
-0.000409017
-0.000412135
-0.000405148
-0.000388045
-0.000360812
-0.000323453
-0.00027599
-0.000218451
-0.000150857
-7.32217e-05
1.44361e-05
0.000112077
0.00021964
0.00033704
0.000464187
0.000600991
0.00074735
0.000903131
0.00106817
0.00124226
0.00142519
0.00161673
0.00181667
0.00202477
0.00224076
0.00246434
0.00269519
0.002933
0.00317742
0.00342813
0.0036848
0.00394706
0.00421453
0.00448677
0.00476335
0.00504382
0.00532774
0.00561464
0.00590403
0.00619539
0.00648817
0.0067818
0.00707572
0.00736932
0.00766204
0.00795328
0.00824245
0.00852896
0.00881217
0.00909145
0.00936615
0.00963564
0.00989932
0.0101566
0.0104068
0.0106494
0.0108837
0.0111091
0.0113252
0.0115312
0.0117267
0.0119111
0.0120841
0.0122452
0.012394
0.0125302
0.0126535
0.0127637
0.0128606
0.0129441
0.013014
0.0130706
0.0131136
0.0131434
0.0131601
0.013164
0.0131552
0.0131341
0.013101
0.0130562
0.0130001
0.0129329
0.0128547
0.0127658
0.0126671
0.0125592
0.0124308
0.0122715
0.000460981
0.000295164
0.000162688
5.26908e-05
-4.69721e-05
-0.000135925
-0.000213626
-0.000280342
-0.000336282
-0.000381571
-0.000416321
-0.000440623
-0.000454551
-0.000458158
-0.00045148
-0.000434541
-0.000407367
-0.000370003
-0.000322492
-0.000264869
-0.00019715
-0.000119353
-3.15136e-05
6.63109e-05
0.000174051
0.00029163
0.00041897
0.000555989
0.00070258
0.0008586
0.00102387
0.00119821
0.00138141
0.00157326
0.00177356
0.00198208
0.00219853
0.00242263
0.00265406
0.00289254
0.00313773
0.00338932
0.00364699
0.00391036
0.00417902
0.00445256
0.00473054
0.00501251
0.00529804
0.00558663
0.00587779
0.00617098
0.00646566
0.00676124
0.00705716
0.00735284
0.00764769
0.00794113
0.00823257
0.00852139
0.00880696
0.00908863
0.00936576
0.00963772
0.00990387
0.0101636
0.0104163
0.0106613
0.0108981
0.0111259
0.0113442
0.0115525
0.0117501
0.0119365
0.0121114
0.0122742
0.0124246
0.0125622
0.0126868
0.012798
0.0128958
0.0129799
0.0130503
0.013107
0.01315
0.0131794
0.0131955
0.0131983
0.0131882
0.0131654
0.0131302
0.013083
0.0130239
0.0129532
0.0128712
0.0127779
0.0126743
0.0125612
0.0124268
0.0122603
0.000439764
0.000267161
0.000129223
1.47032e-05
-8.89924e-05
-0.000181456
-0.000262142
-0.000331363
-0.000389372
-0.000436333
-0.000472415
-0.00049777
-0.000512503
-0.000516688
-0.000510394
-0.00049369
-0.000466645
-0.000429324
-0.000381779
-0.000324044
-0.000256148
-0.000178124
-9.0026e-05
8.07699e-06
0.000116117
0.000234028
0.000361735
0.000499155
0.000646171
0.000802629
0.000968356
0.00114318
0.00132691
0.00151936
0.00172032
0.00192955
0.00214678
0.00237174
0.00260412
0.00284365
0.00309003
0.00334293
0.00360202
0.00386694
0.00413726
0.00441256
0.00469241
0.00497638
0.005264
0.00555479
0.00584822
0.00614375
0.00644083
0.00673889
0.00703736
0.00733565
0.0076332
0.00792941
0.00822368
0.00851539
0.00880389
0.00908854
0.00936867
0.00964366
0.00991285
0.0101756
0.0104313
0.0106793
0.010919
0.0111496
0.0113707
0.0115816
0.0117817
0.0119705
0.0121476
0.0123125
0.0124648
0.0126041
0.0127302
0.0128427
0.0129415
0.0130264
0.0130973
0.0131543
0.0131973
0.0132264
0.0132418
0.0132436
0.0132322
0.0132076
0.0131703
0.0131205
0.0130584
0.0129843
0.0128984
0.0128008
0.0126926
0.0125745
0.0124343
0.0122611
0.000404749
0.000225843
8.27976e-05
-3.60091e-05
-0.000143597
-0.000239499
-0.000323127
-0.000394834
-0.000454937
-0.000503647
-0.00054116
-0.00056765
-0.000583253
-0.000588079
-0.000582236
-0.000565832
-0.000538965
-0.000501709
-0.000454117
-0.000396231
-0.000328101
-0.000249785
-0.000161349
-6.28622e-05
4.5614e-05
0.000164016
0.000292268
0.000430273
0.000577903
0.000735003
0.000901413
0.00107697
0.00126151
0.00145484
0.00165676
0.00186702
0.00208537
0.00231154
0.00254525
0.00278624
0.00303421
0.00328885
0.0035498
0.0038167
0.00408912
0.00436666
0.00464886
0.0049353
0.0052255
0.00551897
0.00581516
0.00611354
0.00641354
0.0067146
0.00701616
0.00731764
0.00761845
0.007918
0.00821568
0.00851086
0.00880288
0.00909109
0.00937481
0.00965339
0.00992619
0.0101926
0.0104518
0.0107033
0.0109464
0.0111803
0.0114046
0.0116185
0.0118215
0.0120131
0.0121928
0.0123601
0.0125145
0.0126559
0.0127837
0.0128977
0.0129977
0.0130836
0.0131552
0.0132125
0.0132556
0.0132844
0.0132992
0.0133
0.0132872
0.0132609
0.0132214
0.0131689
0.0131038
0.0130263
0.0129365
0.0128347
0.0127219
0.012599
0.0124535
0.012274
0.000355655
0.000170807
2.29109e-05
-9.99855e-05
-0.000211306
-0.000310544
-0.000397072
-0.000471265
-0.000533492
-0.000584
-0.000622997
-0.000650669
-0.000667187
-0.000672706
-0.000667374
-0.00065132
-0.000624653
-0.000587452
-0.00053978
-0.000481701
-0.000413286
-0.000334609
-0.000245742
-0.000146749
-3.76896e-05
8.137e-05
0.00021034
0.00034911
0.000497548
0.000655506
0.00082284
0.000999404
0.00118503
0.00137954
0.00158272
0.00179434
0.00201414
0.00224188
0.00247731
0.00272017
0.00297016
0.00322695
0.00349019
0.00375951
0.00403449
0.00431471
0.00459973
0.00488911
0.00518237
0.005479
0.00577845
0.00608018
0.00638362
0.00668823
0.00699343
0.00729866
0.00760331
0.0079068
0.00820848
0.00850772
0.00880386
0.00909621
0.00938411
0.00966688
0.00994386
0.0102144
0.0104777
0.0107332
0.0109802
0.0112179
0.0114458
0.0116632
0.0118696
0.0120643
0.012247
0.012417
0.012574
0.0127176
0.0128475
0.0129632
0.0130647
0.0131517
0.0132241
0.0132819
0.0133251
0.0133537
0.0133678
0.0133677
0.0133534
0.0133253
0.0132836
0.0132285
0.0131603
0.0130793
0.0129857
0.0128798
0.0127625
0.0126349
0.0124843
0.0122989
0.000292216
0.000101711
-5.0844e-05
-0.000177678
-0.000292585
-0.000395061
-0.000484458
-0.000561151
-0.000625523
-0.000677846
-0.000718344
-0.000747226
-0.000764699
-0.000770962
-0.000766184
-0.000750501
-0.000724024
-0.000686848
-0.000639058
-0.000580742
-0.000511986
-0.000432868
-0.000343461
-0.000243827
-0.000134031
-1.41512e-05
0.000115706
0.000255424
0.000404874
0.00056392
0.000732432
0.000910273
0.00109728
0.00129326
0.001498
0.0017113
0.00193292
0.00216261
0.00240016
0.00264529
0.0028977
0.00315706
0.00342302
0.00369519
0.00397316
0.00425652
0.00454481
0.0048376
0.00513439
0.00543466
0.00573787
0.00604346
0.00635089
0.00665959
0.00696901
0.00727857
0.00758766
0.00789567
0.00820197
0.00850588
0.00880673
0.00910384
0.00939652
0.00968407
0.00996579
0.010241
0.010509
0.010769
0.0110204
0.0112624
0.0114944
0.0117158
0.011926
0.0121243
0.0123103
0.0124835
0.0126434
0.0127895
0.0129217
0.0130394
0.0131425
0.0132308
0.0133042
0.0133626
0.0134059
0.0134343
0.0134479
0.0134467
0.013431
0.0134011
0.013357
0.0132992
0.0132279
0.0131435
0.0130461
0.012936
0.0128144
0.0126823
0.0125267
0.0123356
0.000214168
1.82474e-05
-0.000138794
-0.000269458
-0.000387867
-0.000493517
-0.000585754
-0.000664947
-0.000731466
-0.000785598
-0.000827603
-0.000857725
-0.000876198
-0.000883237
-0.000879023
-0.0008637
-0.000837387
-0.000800202
-0.000752257
-0.000693653
-0.000624485
-0.000544831
-0.00045476
-0.000354344
-0.000243659
-0.000122802
8.11262e-06
0.000148967
0.000299644
0.000460019
0.000629971
0.000809361
0.000998022
0.00119577
0.0014024
0.00161772
0.0018415
0.00207354
0.00231359
0.00256139
0.00281663
0.00307897
0.00334805
0.00362349
0.00390489
0.00419182
0.00448385
0.0047805
0.00508129
0.00538569
0.00569315
0.00600313
0.00631508
0.00662845
0.00694268
0.00725718
0.00757132
0.00788448
0.008196
0.0085052
0.0088114
0.00911388
0.00941194
0.00970486
0.00999193
0.0102724
0.0105456
0.0108107
0.011067
0.0113139
0.0115505
0.0117763
0.0119907
0.0121931
0.0123829
0.0125595
0.0127226
0.0128717
0.0130064
0.0131264
0.0132313
0.0133211
0.0133956
0.0134547
0.0134983
0.0135265
0.0135395
0.0135373
0.0135202
0.0134883
0.0134419
0.0133814
0.013307
0.013219
0.0131178
0.0130037
0.0128778
0.0127413
0.0125808
0.0123843
0.000121284
-7.98684e-05
-0.000241255
-0.000375674
-0.000497557
-0.000606352
-0.000701394
-0.000783058
-0.000851712
-0.000907656
-0.000951183
-0.000982574
-0.00100207
-0.0010099
-0.00100623
-0.000991234
-0.000965055
-0.00092783
-0.000879686
-0.000820734
-0.000751067
-0.000670764
-0.000579901
-0.000478564
-0.000366845
-0.000244855
-0.00011271
2.94812e-05
0.00018161
0.000343562
0.000515212
0.000696421
0.000887021
0.00108683
0.00129567
0.00151335
0.00173967
0.00197442
0.00221736
0.00246821
0.00272666
0.00299237
0.00326498
0.00354411
0.00382936
0.0041203
0.0044165
0.00471747
0.00502272
0.00533174
0.00564397
0.00595887
0.00627591
0.00659454
0.00691418
0.00723422
0.00755404
0.00787298
0.00819036
0.00850549
0.00881766
0.00912615
0.00943021
0.00972911
0.0100221
0.0103085
0.0105874
0.0108582
0.01112
0.0113722
0.011614
0.0118448
0.0120639
0.0122707
0.0124647
0.0126453
0.012812
0.0129643
0.0131018
0.0132243
0.0133313
0.0134228
0.0134985
0.0135583
0.0136023
0.0136305
0.0136428
0.0136396
0.013621
0.0135872
0.0135385
0.0134752
0.0133976
0.0133062
0.0132012
0.013083
0.0129529
0.012812
0.0126468
0.0124449
1.33827e-05
-0.00019291
-0.000358565
-0.000496685
-0.00062202
-0.000733941
-0.000831755
-0.000915859
-0.000986642
-0.00104442
-0.00108949
-0.00112217
-0.00114269
-0.00115128
-0.00114813
-0.00113344
-0.00110736
-0.00107006
-0.00102167
-0.000962287
-0.000892019
-0.000810949
-0.000719168
-0.000616778
-0.000503886
-0.000380605
-0.000247045
-0.000103309
5.05036e-05
0.000214275
0.000387879
0.000571171
0.000763991
0.000966168
0.00117754
0.00139793
0.00162714
0.00186497
0.00211116
0.00236544
0.00262748
0.00289694
0.00317347
0.00345669
0.00374621
0.00404159
0.00434238
0.00464813
0.00495832
0.00527244
0.00558996
0.00591034
0.00623305
0.00655753
0.00688319
0.00720941
0.00753554
0.00786089
0.00818478
0.00850648
0.00882527
0.0091404
0.0094511
0.00975662
0.0100562
0.010349
0.0106343
0.0109113
0.0111792
0.0114373
0.0116848
0.0119211
0.0121454
0.0123572
0.0125559
0.0127408
0.0129115
0.0130674
0.0132081
0.0133333
0.0134427
0.013536
0.0136131
0.0136738
0.0137182
0.0137463
0.0137582
0.0137539
0.0137338
0.0136981
0.013647
0.0135809
0.0135002
0.0134053
0.0132966
0.0131743
0.0130399
0.0128948
0.0127248
0.0125174
-0.0001097
-0.000321135
-0.000491045
-0.00063283
-0.000761578
-0.000876611
-0.000977188
-0.00106373
-0.00113665
-0.00119628
-0.00124293
-0.00127688
-0.0012984
-0.00130773
-0.00130508
-0.00129067
-0.00126467
-0.00122724
-0.00117852
-0.00111863
-0.00104765
-0.000965699
-0.000872882
-0.000769313
-0.000655106
-0.000530367
-0.000395202
-0.000249706
-9.39828e-05
7.18472e-05
0.000247652
0.000433292
0.000628614
0.000833464
0.00104769
0.00127113
0.00150359
0.00174485
0.00199465
0.0022527
0.0025187
0.00279228
0.00307312
0.00336083
0.00365502
0.00395527
0.00426111
0.00457208
0.00488769
0.00520743
0.00553078
0.0058572
0.00618617
0.0065171
0.0068494
0.00718243
0.0075155
0.00784791
0.00817895
0.00850788
0.00883394
0.00915636
0.00947435
0.00978712
0.0100939
0.0103938
0.0106861
0.0109699
0.0112445
0.0115091
0.0117629
0.0120052
0.0122354
0.0124527
0.0126565
0.0128462
0.0130212
0.0131811
0.0133253
0.0134535
0.0135655
0.0136609
0.0137395
0.0138013
0.0138463
0.0138744
0.0138858
0.0138806
0.013859
0.0138213
0.0137679
0.013699
0.0136152
0.0135168
0.0134042
0.0132779
0.0131393
0.0129897
0.0128149
0.0126019
-0.00024814
-0.000464769
-0.000638963
-0.000784407
-0.000916547
-0.00103469
-0.00113806
-0.00122706
-0.00130215
-0.00136365
-0.00141186
-0.00144707
-0.00146957
-0.00147962
-0.00147746
-0.00146331
-0.00143734
-0.00139973
-0.0013506
-0.00129009
-0.0012183
-0.00113537
-0.0010414
-0.000936527
-0.000820853
-0.000694481
-0.000557513
-0.000410047
-0.000252191
-8.40712e-05
9.41806e-05
0.000282432
0.000480545
0.000688378
0.00090579
0.00113262
0.00136866
0.00161368
0.00186743
0.00212961
0.00239991
0.00267799
0.00296352
0.00325612
0.00355541
0.00386094
0.00417227
0.00448894
0.00481047
0.00513635
0.00546608
0.00579912
0.00613494
0.00647294
0.00681251
0.00715296
0.00749361
0.00783373
0.00817257
0.00850937
0.00884335
0.00917372
0.00949966
0.00982034
0.0101349
0.0104426
0.0107426
0.0110339
0.0113159
0.0115876
0.0118483
0.0120973
0.0123338
0.0125571
0.0127665
0.0129614
0.0131413
0.0133055
0.0134536
0.0135852
0.0137
0.0137977
0.0138781
0.0139412
0.0139868
0.0140151
0.014026
0.0140199
0.0139969
0.0139573
0.0139015
0.0138299
0.0137429
0.0136409
0.0135245
0.013394
0.013251
0.0130969
0.0129171
0.0126983
-0.000402134
-0.000624025
-0.000802559
-0.000951703
-0.00108727
-0.00120855
-0.00131475
-0.00140626
-0.00148354
-0.0015469
-0.00159666
-0.00163313
-0.00165661
-0.00166738
-0.00166569
-0.00165176
-0.00162577
-0.0015879
-0.00153828
-0.00147706
-0.00140437
-0.00132035
-0.00122512
-0.0011188
-0.00100149
-0.000873308
-0.000734341
-0.000584699
-0.000424496
-0.000253859
-7.29138e-05
0.000118219
0.000319414
0.00053054
0.000751454
0.000981988
0.00122193
0.00147105
0.00172907
0.00199572
0.00227069
0.00255364
0.00284425
0.00314215
0.00344694
0.00375819
0.00407547
0.00439833
0.00472629
0.00505886
0.00539554
0.0057358
0.00607907
0.00642475
0.0067722
0.00712071
0.00746957
0.00781802
0.00816531
0.00851064
0.00885321
0.00919219
0.00952675
0.00985602
0.0101792
0.0104953
0.0108036
0.0111031
0.011393
0.0116726
0.0119408
0.0121971
0.0124405
0.0126704
0.012886
0.0130867
0.0132719
0.0134408
0.0135932
0.0137285
0.0138465
0.0139468
0.0140292
0.0140937
0.0141401
0.0141687
0.0141793
0.0141724
0.014148
0.0141065
0.0140483
0.0139738
0.0138836
0.013778
0.0136576
0.0135227
0.0133752
0.0132164
0.0130313
0.0128065
-0.000571908
-0.00079915
-0.000982107
-0.00113504
-0.00127411
-0.00139859
-0.00150766
-0.00160173
-0.0016812
-0.00174643
-0.00179775
-0.00183549
-0.00185996
-0.00187144
-0.0018702
-0.00185644
-0.00183037
-0.00179215
-0.00174196
-0.00167994
-0.00160626
-0.00152105
-0.00142443
-0.00131651
-0.00119741
-0.00106723
-0.000926076
-0.00077406
-0.000611299
-0.000437916
-0.000254027
-5.9739e-05