/*--------------------------------*- C++ -*----------------------------------*\
| =========                 |                                                 |
| \\      /  F ield         | OpenFOAM: The Open Source CFD Toolbox           |
|  \\    /   O peration     | Version:  2512                                  |
|   \\  /    A nd           | Website:  www.openfoam.com                      |
|    \\/     M anipulation  |                                                 |
\*---------------------------------------------------------------------------*/
FoamFile
{
    version     2.0;
    format      ascii;
    arch        "LSB;label=32;scalar=64";
    class       surfaceScalarField;
    location    "0.08";
    object      phi;
}
// * * * * * * * * * * * * * * * * * * * * * * * * * * * * * * * * * * * * * //

dimensions      [0 3 -1 0 0 0 0];

oriented        oriented;

internalField   nonuniform List<scalar> 
19800
(
6.42775e-11
-6.42745e-11
1.59305e-10
-9.50178e-11
1.98536e-10
-3.92457e-11
1.61737e-10
3.68065e-11
3.89637e-11
1.22769e-10
-1.68705e-10
2.07665e-10
-4.55816e-10
2.87108e-10
-8.1497e-10
3.59154e-10
-1.23804e-09
4.23066e-10
-1.71684e-09
4.78804e-10
-2.24351e-09
5.26662e-10
-2.81057e-09
5.67061e-10
-3.41109e-09
6.0052e-10
-4.03867e-09
6.2758e-10
-4.68749e-09
6.48823e-10
-5.35236e-09
6.64865e-10
-6.02864e-09
6.76275e-10
-6.71216e-09
6.8352e-10
-7.39917e-09
6.87019e-10
-8.08638e-09
6.87207e-10
-8.7709e-09
6.84517e-10
-9.4502e-09
6.79306e-10
-1.01221e-08
6.71857e-10
-1.07845e-08
6.62419e-10
-1.14357e-08
6.51216e-10
-1.20742e-08
6.38455e-10
-1.26985e-08
6.24319e-10
-1.33074e-08
6.08947e-10
-1.38999e-08
5.92453e-10
-1.44748e-08
5.74935e-10
-1.50313e-08
5.56464e-10
-1.55684e-08
5.37098e-10
-1.60853e-08
5.16898e-10
-1.65812e-08
4.95922e-10
-1.70554e-08
4.74198e-10
-1.75071e-08
4.51742e-10
-1.79357e-08
4.28579e-10
-1.83405e-08
4.04732e-10
-1.87207e-08
3.80224e-10
-1.90758e-08
3.55072e-10
-1.94051e-08
3.29296e-10
-1.9708e-08
3.02909e-10
-1.99839e-08
2.75917e-10
-2.02322e-08
2.4833e-10
-2.04524e-08
2.20173e-10
-2.06439e-08
1.91478e-10
-2.08061e-08
1.62268e-10
-2.09387e-08
1.32559e-10
-2.1041e-08
1.02365e-10
-2.11128e-08
7.17118e-11
-2.11534e-08
4.06354e-11
-2.11626e-08
9.17288e-12
-2.11399e-08
-2.26376e-11
-2.10852e-08
-5.4758e-11
-2.0998e-08
-8.71507e-11
-2.08782e-08
-1.19771e-10
-2.07257e-08
-1.52568e-10
-2.05402e-08
-1.8549e-10
-2.03217e-08
-2.18479e-10
-2.00702e-08
-2.51472e-10
-1.97858e-08
-2.84401e-10
-1.94686e-08
-3.17196e-10
-1.91188e-08
-3.4978e-10
-1.87367e-08
-3.82077e-10
-1.83227e-08
-4.14002e-10
-1.78773e-08
-4.4546e-10
-1.74009e-08
-4.76349e-10
-1.68944e-08
-5.06554e-10
-1.63584e-08
-5.35949e-10
-1.5794e-08
-5.64403e-10
-1.52022e-08
-5.91775e-10
-1.45843e-08
-6.17907e-10
-1.39417e-08
-6.42628e-10
-1.3276e-08
-6.65745e-10
-1.25889e-08
-6.87045e-10
-1.18826e-08
-7.06295e-10
-1.11594e-08
-7.2324e-10
-1.04218e-08
-7.37606e-10
-9.67267e-09
-7.49093e-10
-8.91529e-09
-7.57381e-10
-8.15317e-09
-7.6212e-10
-7.39024e-09
-7.62936e-10
-6.63081e-09
-7.59424e-10
-5.87966e-09
-7.51158e-10
-5.14197e-09
-7.37687e-10
-4.42343e-09
-7.18542e-10
-3.73019e-09
-6.93245e-10
-3.06887e-09
-6.61316e-10
-2.44659e-09
-6.22281e-10
-1.8709e-09
-5.7569e-10
-1.34975e-09
-5.21146e-10
-8.91383e-10
-4.58369e-10
-5.04104e-10
-3.87278e-10
-1.95954e-10
-3.08155e-10
2.60277e-11
-2.21983e-10
1.57188e-10
-1.31155e-10
1.97725e-10
-4.05372e-11
1.57811e-10
3.9901e-11
6.83621e-11
8.94272e-11
6.83388e-11
7.27081e-11
-1.36972e-10
1.31782e-10
-1.541e-10
7.16065e-11
2.09307e-11
-1.68001e-10
2.76416e-10
-6.09179e-10
5.63954e-10
-1.25627e-09
8.54763e-10
-2.10199e-09
1.13284e-09
-3.13241e-09
1.38957e-09
-4.33016e-09
1.62083e-09
-5.6764e-09
1.82504e-09
-7.15192e-09
2.00219e-09
-8.73802e-09
2.15316e-09
-1.04169e-08
2.27936e-09
-1.21717e-08
2.38245e-09
-1.39872e-08
2.46426e-09
-1.5849e-08
2.52672e-09
-1.77445e-08
2.57171e-09
-1.96619e-08
2.60094e-09
-2.15909e-08
2.61604e-09
-2.35223e-08
2.61857e-09
-2.54477e-08
2.60995e-09
-2.73599e-08
2.59145e-09
-2.92522e-08
2.56421e-09
-3.1119e-08
2.5292e-09
-3.29551e-08
2.4873e-09
-3.47559e-08
2.43927e-09
-3.65174e-08
2.38575e-09
-3.82357e-08
2.32731e-09
-3.99077e-08
2.2644e-09
-4.15302e-08
2.19741e-09
-4.31004e-08
2.12666e-09
-4.46157e-08
2.0524e-09
-4.60737e-08
1.97488e-09
-4.7472e-08
1.89426e-09
-4.88085e-08
1.81071e-09
-5.00811e-08
1.72433e-09
-5.12877e-08
1.63522e-09
-5.24265e-08
1.54349e-09
-5.34955e-08
1.4492e-09
-5.44928e-08
1.35246e-09
-5.54169e-08
1.25332e-09
-5.62658e-08
1.15185e-09
-5.7038e-08
1.04812e-09
-5.77318e-08
9.42174e-10
-5.83458e-08
8.34106e-10
-5.88783e-08
7.24003e-10
-5.9328e-08
6.11952e-10
-5.96935e-08
4.98039e-10
-5.99735e-08
3.82358e-10
-6.01668e-08
2.65014e-10
-6.02722e-08
1.46126e-10
-6.02889e-08
2.58274e-11
-6.02158e-08
-9.57401e-11
-6.00521e-08
-2.18423e-10
-5.97972e-08
-3.4206e-10
-5.94505e-08
-4.66481e-10
-5.90116e-08
-5.91497e-10
-5.84801e-08
-7.16903e-10
-5.78561e-08
-8.4248e-10
-5.71396e-08
-9.6799e-10
-5.63308e-08
-1.09318e-09
-5.54302e-08
-1.21779e-09
-5.44385e-08
-1.34152e-09
-5.33565e-08
-1.46407e-09
-5.21854e-08
-1.5851e-09
-5.09266e-08
-1.70426e-09
-4.95818e-08
-1.82115e-09
-4.8153e-08
-1.93534e-09
-4.66426e-08
-2.04637e-09
-4.50532e-08
-2.15373e-09
-4.33881e-08
-2.25688e-09
-4.16508e-08
-2.3552e-09
-3.98454e-08
-2.44803e-09
-3.79765e-08
-2.53465e-09
-3.60493e-08
-2.61425e-09
-3.40696e-08
-2.68597e-09
-3.2044e-08
-2.74885e-09
-2.99798e-08
-2.80185e-09
-2.7885e-08
-2.84388e-09
-2.57687e-08
-2.87371e-09
-2.36407e-08
-2.89007e-09
-2.15121e-08
-2.89157e-09
-1.93947e-08
-2.87677e-09
-1.73018e-08
-2.84413e-09
-1.52474e-08
-2.79208e-09
-1.32469e-08
-2.71899e-09
-1.13169e-08
-2.62326e-09
-9.47492e-09
-2.50332e-09
-7.7395e-09
-2.35771e-09
-6.13003e-09
-2.18516e-09
-4.66639e-09
-1.98478e-09
-3.3685e-09
-1.75626e-09
-2.25553e-09
-1.50025e-09
-1.34469e-09
-1.21901e-09
-6.49203e-10
-9.17468e-10
-1.75235e-10
-6.05125e-10
8.34016e-11
-2.99167e-10
1.52837e-10
-2.94943e-11
8.93868e-11
1.52925e-10
1.5771e-10
3.5553e-11
-1.7254e-10
-3.57308e-11
-8.28138e-11
-3.05685e-10
2.90875e-10
-8.36133e-10
8.06862e-10
-1.6558e-09
1.38361e-09
-2.7719e-09
1.97086e-09
-4.17681e-09
2.53774e-09
-5.85347e-09
3.06624e-09
-7.77918e-09
3.54653e-09
-9.92823e-09
3.97409e-09
-1.22737e-08
4.34765e-09
-1.47886e-08
4.66809e-09
-1.74469e-08
4.93759e-09
-2.02235e-08
5.15912e-09
-2.30954e-08
5.3361e-09
-2.60408e-08
5.47218e-09
-2.90401e-08
5.57099e-09
-3.20752e-08
5.63605e-09
-3.51299e-08
5.67075e-09
-3.81896e-08
5.67825e-09
-4.12412e-08
5.66149e-09
-4.42728e-08
5.62314e-09
-4.72742e-08
5.56558e-09
-5.02359e-08
5.49093e-09
-5.31497e-08
5.40105e-09
-5.6008e-08
5.2976e-09
-5.88043e-08
5.18198e-09
-6.15324e-08
5.0554e-09
-6.41868e-08
4.91887e-09
-6.67627e-08
4.77326e-09
-6.92553e-08
4.61929e-09
-7.16605e-08
4.45756e-09
-7.39742e-08
4.28858e-09
-7.61927e-08
4.11276e-09
-7.83124e-08
3.93046e-09
-8.03301e-08
3.74195e-09
-8.22423e-08
3.54749e-09
-8.40461e-08
3.34729e-09
-8.57385e-08
3.14154e-09
-8.73164e-08
2.93042e-09
-8.87772e-08
2.71411e-09
-9.01181e-08
2.49276e-09
-9.13366e-08
2.26652e-09
-9.24299e-08
2.03556e-09
-9.33959e-08
1.80006e-09
-9.42321e-08
1.56019e-09
-9.49363e-08
1.31615e-09
-9.55064e-08
1.06816e-09
-9.59405e-08
8.16427e-10
-9.62366e-08
5.61199e-10
-9.63932e-08
3.02734e-10
-9.64087e-08
4.13229e-11
-9.62817e-08
-2.22724e-10
-9.60111e-08
-4.89076e-10
-9.55958e-08
-7.57374e-10
-9.5035e-08
-1.02724e-09
-9.43282e-08
-1.29826e-09
-9.34751e-08
-1.57e-09
-9.24756e-08
-1.84198e-09
-9.13299e-08
-2.11369e-09
-9.00385e-08
-2.38458e-09
-8.86022e-08
-2.65407e-09
-8.70222e-08
-2.92154e-09
-8.53e-08
-3.18632e-09
-8.34374e-08
-3.44767e-09
-8.14368e-08
-3.70483e-09
-7.9301e-08
-3.95692e-09
-7.70333e-08
-4.20304e-09
-7.46375e-08
-4.44217e-09
-7.2118e-08
-4.67322e-09
-6.94799e-08
-4.89498e-09
-6.6729e-08
-5.10614e-09
-6.38717e-08
-5.30528e-09
-6.09156e-08
-5.49081e-09
-5.78688e-08
-5.66102e-09
-5.47407e-08
-5.81405e-09
-5.15417e-08
-5.94786e-09
-4.82833e-08
-6.06026e-09
-4.49783e-08
-6.14887e-09
-4.16409e-08
-6.21114e-09
-3.82866e-08
-6.24437e-09
-3.49325e-08
-6.24568e-09
-3.15972e-08
-6.21204e-09
-2.8301e-08
-6.14034e-09
-2.50657e-08
-6.02735e-09
-2.19149e-08
-5.86987e-09
-1.88734e-08
-5.66474e-09
-1.59677e-08
-5.40898e-09
-1.32255e-08
-5.09995e-09
-1.0675e-08
-4.73559e-09
-8.34509e-09
-4.31474e-09
-6.26369e-09
-3.83767e-09
-4.45709e-09
-3.30685e-09
-2.94792e-09
-2.72817e-09
-1.75254e-09
-2.11286e-09
-8.77203e-10
-1.48048e-09
-3.12732e-10
-8.63659e-10
-2.76209e-11
-3.14621e-10
4.0456e-11
8.4869e-11
1.98163e-10
-3.87316e-11
-1.33801e-10
-2.84693e-10
1.6315e-10
-8.17913e-10
8.24097e-10
-1.68958e-09
1.67853e-09
-2.92503e-09
2.61907e-09
-4.52967e-09
3.5755e-09
-6.49408e-09
4.50215e-09
-8.79852e-09
5.37068e-09
-1.14165e-08
6.16454e-09
-1.43176e-08
6.87518e-09
-1.74693e-08
7.49938e-09
-2.08388e-08
8.03754e-09
-2.43935e-08
8.49233e-09
-2.81024e-08
8.86795e-09
-3.19357e-08
9.16949e-09
-3.58661e-08
9.40251e-09
-3.98678e-08
9.57273e-09
-4.39176e-08
9.68582e-09
-4.79941e-08
9.74726e-09
-5.20781e-08
9.76222e-09
-5.61521e-08
9.73552e-09
-6.02005e-08
9.67158e-09
-6.42094e-08
9.57441e-09
-6.8166e-08
9.4476e-09
-7.20593e-08
9.29431e-09
-7.5879e-08
9.1173e-09
-7.9616e-08
8.919e-09
-8.32621e-08
8.7015e-09
-8.68098e-08
8.46658e-09
-9.02523e-08
8.21575e-09
-9.35833e-08
7.95026e-09
-9.67969e-08
7.67119e-09
-9.98878e-08
7.37943e-09
-1.02851e-07
7.07574e-09
-1.05681e-07
6.76074e-09
-1.08374e-07
6.43498e-09
-1.10925e-07
6.0989e-09
-1.13331e-07
5.75289e-09
-1.15587e-07
5.39731e-09
-1.17689e-07
5.0325e-09
-1.19634e-07
4.65876e-09
-1.21417e-07
4.27639e-09
-1.23036e-07
3.88567e-09
-1.24488e-07
3.4869e-09
-1.25768e-07
3.0804e-09
-1.26874e-07
2.6665e-09
-1.27804e-07
2.24555e-09
-1.28554e-07
1.81791e-09
-1.29121e-07
1.38399e-09
-1.29504e-07
9.44212e-10
-1.297e-07
4.99031e-10
-1.29708e-07
4.89506e-11
-1.29525e-07
-4.05489e-10
-1.29151e-07
-8.63713e-10
-1.28583e-07
-1.3251e-09
-1.27821e-07
-1.789e-09
-1.26865e-07
-2.2547e-09
-1.25713e-07
-2.72143e-09
-1.24367e-07
-3.18839e-09
-1.22826e-07
-3.65469e-09
-1.21091e-07
-4.11941e-09
-1.19164e-07
-4.58153e-09
-1.17045e-07
-5.03999e-09
-1.14738e-07
-5.49362e-09
-1.12244e-07
-5.94119e-09
-1.09568e-07
-6.38133e-09
-1.06712e-07
-6.81259e-09
-1.03682e-07
-7.23339e-09
-1.00482e-07
-7.64198e-09
-9.71186e-08
-8.03648e-09
-9.35988e-08
-8.41484e-09
-8.99301e-08
-8.7748e-09
-8.61215e-08
-9.11393e-09
-8.21827e-08
-9.42953e-09
-7.81251e-08
-9.71869e-09
-7.39609e-08
-9.97824e-09
-6.9704e-08
-1.02047e-08
-6.53698e-08
-1.03945e-08
-6.09752e-08
-1.05435e-08
-5.65389e-08
-1.06474e-08
-5.20814e-08
-1.07019e-08
-4.76251e-08
-1.0702e-08
-4.31943e-08
-1.06428e-08
-3.88153e-08
-1.05193e-08
-3.45164e-08
-1.03263e-08
-3.03277e-08
-1.00586e-08
-2.62811e-08
-9.71133e-09
-2.24101e-08
-9.28e-09
-1.87493e-08
-8.76079e-09
-1.53339e-08
-8.15099e-09
-1.2199e-08
-7.4496e-09
-9.37859e-09
-6.65809e-09
-6.90378e-09
-5.78166e-09
-4.80099e-09
-4.83096e-09
-3.08909e-09
-3.82474e-09
-1.77583e-09
-2.79372e-09
-8.53296e-10
-1.78619e-09
-2.92678e-10
-8.75262e-10
-3.85404e-11
-1.69264e-10
1.59625e-10
-1.2161e-10
-1.21974e-11
-5.67989e-10
6.09533e-10
-1.39345e-09
1.64955e-09
-2.63336e-09
2.91844e-09
-4.3042e-09
4.28991e-09
-6.40595e-09
5.67724e-09
-8.92544e-09
7.02164e-09
-1.18397e-08
8.28494e-09
-1.51189e-08
9.44376e-09
-1.87289e-08
1.04851e-08
-2.26329e-08
1.14034e-08
-2.67936e-08
1.21982e-08
-3.11737e-08
1.28724e-08
-3.57371e-08
1.34313e-08
-4.04492e-08
1.38817e-08
-4.52777e-08
1.4231e-08
-5.01923e-08
1.44873e-08
-5.51651e-08
1.46586e-08
-6.01705e-08
1.47527e-08
-6.51853e-08
1.4777e-08
-7.01882e-08
1.47385e-08
-7.51603e-08
1.46437e-08
-8.00844e-08
1.44985e-08
-8.49449e-08
1.43081e-08
-8.97279e-08
1.40773e-08
-9.44209e-08
1.38103e-08
-9.90126e-08
1.35106e-08
-1.03493e-07
1.31815e-08
-1.07852e-07
1.28256e-08
-1.12081e-07
1.24452e-08
-1.16173e-07
1.20423e-08
-1.2012e-07
1.16185e-08
-1.23916e-07
1.11753e-08
-1.27554e-07
1.07137e-08
-1.31028e-07
1.02349e-08
-1.34333e-07
9.73962e-09
-1.37463e-07
9.22861e-09
-1.40412e-07
8.70252e-09
-1.43177e-07
8.16192e-09
-1.45752e-07
7.60733e-09
-1.48132e-07
7.03925e-09
-1.50314e-07
6.45814e-09
-1.52293e-07
5.86449e-09
-1.54065e-07
5.25876e-09
-1.55626e-07
4.64145e-09
-1.56972e-07
4.01307e-09
-1.58101e-07
3.37418e-09
-1.59008e-07
2.72535e-09
-1.59692e-07
2.0672e-09
-1.60148e-07
1.40038e-09
-1.60374e-07
7.25615e-10
-1.60369e-07
4.36573e-11
-1.6013e-07
-6.44667e-10
-1.59655e-07
-1.33848e-09
-1.58943e-07
-2.03684e-09
-1.57994e-07
-2.73875e-09
-1.56805e-07
-3.44312e-09
-1.55378e-07
-4.14881e-09
-1.53712e-07
-4.85459e-09
-1.51807e-07
-5.55912e-09
-1.49666e-07
-6.261e-09
-1.47288e-07
-6.9587e-09
-1.44678e-07
-7.6506e-09
-1.41836e-07
-8.33494e-09
-1.38768e-07
-9.00985e-09
-1.35476e-07
-9.67327e-09
-1.31965e-07
-1.0323e-08
-1.28242e-07
-1.09566e-08
-1.24313e-07
-1.15715e-08
-1.20184e-07
-1.21649e-08
-1.15865e-07
-1.27336e-08
-1.11366e-07
-1.32743e-08
-1.06697e-07
-1.37832e-08
-1.0187e-07
-1.42564e-08
-9.6899e-08
-1.46895e-08
-9.17995e-08
-1.50778e-08
-8.65882e-08
-1.54161e-08
-8.12838e-08
-1.56989e-08
-7.59069e-08
-1.59203e-08
-7.04802e-08
-1.60741e-08
-6.50284e-08
-1.61537e-08
-5.95785e-08
-1.6152e-08
-5.41595e-08
-1.60618e-08
-4.88028e-08
-1.5876e-08
-4.3542e-08
-1.55871e-08
-3.84128e-08
-1.51879e-08
-3.34525e-08
-1.46716e-08
-2.87001e-08
-1.40323e-08
-2.41958e-08
-1.32651e-08
-1.99801e-08
-1.23668e-08
-1.60928e-08
-1.13369e-08
-1.25723e-08
-1.01786e-08
-9.45368e-09
-8.90031e-09
-6.76659e-09
-7.51805e-09
-4.53302e-09
-6.05832e-09
-2.76415e-09
-4.56258e-09
-1.45708e-09
-3.09325e-09
-5.9151e-10
-1.74085e-09
-1.26844e-10
-6.3393e-10
3.27789e-11
-2.05513e-10
1.93312e-10
-8.58867e-10
1.26289e-09
-1.98593e-09
2.77661e-09
-3.6031e-09
4.5356e-09
-5.71442e-09
6.40123e-09
-8.31173e-09
8.27455e-09
-1.13763e-08
1.00862e-08
-1.48809e-08
1.17895e-08
-1.87921e-08
1.3355e-08
-2.30722e-08
1.47653e-08
-2.76813e-08
1.60125e-08
-3.25781e-08
1.7095e-08
-3.77216e-08
1.80159e-08
-4.30717e-08
1.87815e-08
-4.85902e-08
1.94001e-08
-5.42406e-08
1.98814e-08
-5.99888e-08
2.02355e-08
-6.58031e-08
2.04729e-08
-7.16545e-08
2.0604e-08
-7.75162e-08
2.06387e-08
-8.3364e-08
2.05862e-08
-8.91757e-08
2.04554e-08
-9.49314e-08
2.02542e-08
-1.00613e-07
1.99898e-08
-1.06204e-07
1.96686e-08
-1.11691e-07
1.92965e-08
-1.17058e-07
1.88784e-08
-1.22295e-07
1.84186e-08
-1.27391e-07
1.7921e-08
-1.32334e-07
1.73888e-08
-1.37117e-07
1.68247e-08
-1.4173e-07
1.62312e-08
-1.46165e-07
1.56102e-08
-1.50414e-07
1.49633e-08
-1.54471e-07
1.42921e-08
-1.5833e-07
1.35978e-08
-1.61982e-07
1.28813e-08
-1.65423e-07
1.21437e-08
-1.68647e-07
1.13859e-08
-1.71649e-07
1.06085e-08
-1.74422e-07
9.81224e-09
-1.76961e-07
8.99792e-09
-1.79263e-07
8.16617e-09
-1.81322e-07
7.31771e-09
-1.83134e-07
6.45323e-09
-1.84694e-07
5.57349e-09
-1.85999e-07
4.67927e-09
-1.87045e-07
3.7714e-09
-1.87829e-07
2.85075e-09
-1.88347e-07
1.91827e-09
-1.88596e-07
9.74952e-10
-1.88574e-07
2.18898e-11
-1.88279e-07
-9.39771e-10
-1.87709e-07
-1.9088e-09
-1.86862e-07
-2.88387e-09
-1.85737e-07
-3.86357e-09
-1.84334e-07
-4.84641e-09
-1.82652e-07
-5.83077e-09
-1.80691e-07
-6.81493e-09
-1.78453e-07
-7.79703e-09
-1.75939e-07
-8.77511e-09
-1.73151e-07
-9.74705e-09
-1.70091e-07
-1.07106e-08
-1.66763e-07
-1.16632e-08
-1.6317e-07
-1.26024e-08
-1.59318e-07
-1.35252e-08
-1.55213e-07
-1.44286e-08
-1.5086e-07
-1.53092e-08
-1.46268e-07
-1.61634e-08
-1.41446e-07
-1.69872e-08
-1.36403e-07
-1.77763e-08
-1.31151e-07
-1.85261e-08
-1.25703e-07
-1.92314e-08
-1.20073e-07
-1.98867e-08
-1.14277e-07
-2.04859e-08
-1.08332e-07
-2.10225e-08
-1.02258e-07
-2.14896e-08
-9.60776e-08
-2.18796e-08
-8.98135e-08
-2.21844e-08
-8.34921e-08
-2.23955e-08
-7.71419e-08
-2.25039e-08
-7.07935e-08
-2.25004e-08
-6.44801e-08
-2.23752e-08
-5.82374e-08
-2.21187e-08
-5.21032e-08
-2.17212e-08
-4.61177e-08
-2.11734e-08
-4.03226e-08
-2.04667e-08
-3.47615e-08
-1.95934e-08
-2.94788e-08
-1.85478e-08
-2.4519e-08
-1.73266e-08
-1.9926e-08
-1.59299e-08
-1.57417e-08
-1.43628e-08
-1.20048e-08
-1.26372e-08
-8.74843e-09
-1.07744e-08
-5.99866e-09
-8.8081e-09
-3.77202e-09
-6.78922e-09
-2.07349e-09
-4.79178e-09
-8.94934e-10
-2.9194e-09
-2.14702e-10
-1.31417e-09
-1.81927e-10
-2.85919e-10
4.79229e-10
-1.142e-09
2.11898e-09
-2.56704e-09
4.20164e-09
-4.55745e-09
6.52601e-09
-7.10307e-09
8.94685e-09
-1.01858e-08
1.13573e-08
-1.37798e-08
1.36802e-08
-1.78527e-08
1.58624e-08
-2.2367e-08
1.78692e-08
-2.72814e-08
1.96797e-08
-3.25526e-08
2.12837e-08
-3.81364e-08
2.26788e-08
-4.39886e-08
2.38681e-08
-5.00659e-08
2.48588e-08
-5.63267e-08
2.5661e-08
-6.27315e-08
2.62862e-08
-6.9243e-08
2.6747e-08
-7.58265e-08
2.70565e-08
-8.245e-08
2.72275e-08
-8.90838e-08
2.72725e-08
-9.5701e-08
2.72034e-08
-1.02277e-07
2.70313e-08
-1.08789e-07
2.67664e-08
-1.15217e-07
2.6418e-08
-1.21543e-07
2.59945e-08
-1.2775e-07
2.55033e-08
-1.33822e-07
2.49509e-08
-1.39747e-07
2.43431e-08
-1.45511e-07
2.36848e-08
-1.51102e-07
2.29804e-08
-1.56511e-07
2.22335e-08
-1.61727e-07
2.14473e-08
-1.66742e-07
2.06244e-08
-1.71545e-07
1.97671e-08
-1.7613e-07
1.88773e-08
-1.8049e-07
1.79568e-08
-1.84615e-07
1.7007e-08
-1.88501e-07
1.60292e-08
-1.92139e-07
1.50246e-08
-1.95525e-07
1.39941e-08
-1.98652e-07
1.29389e-08
-2.01514e-07
1.18599e-08
-2.04106e-07
1.0758e-08
-2.06422e-07
9.63411e-09
-2.08458e-07
8.48932e-09
-2.10209e-07
7.3246e-09
-2.11671e-07
6.14101e-09
-2.12839e-07
4.93965e-09
-2.1371e-07
3.72171e-09
-2.1428e-07
2.48846e-09
-2.14547e-07
1.24123e-09
-2.14506e-07
-1.85425e-11
-2.14157e-07
-1.28932e-09
-2.13496e-07
-2.56946e-09
-2.12523e-07
-3.85723e-09
-2.11235e-07
-5.15075e-09
-2.09634e-07
-6.44804e-09
-2.07718e-07
-7.74696e-09
-2.05487e-07
-9.04523e-09
-2.02944e-07
-1.03404e-08
-2.00089e-07
-1.16299e-08
-1.96925e-07
-1.29109e-08
-1.93455e-07
-1.41805e-08
-1.89683e-07
-1.54353e-08
-1.85614e-07
-1.66719e-08
-1.81252e-07
-1.78866e-08
-1.76606e-07
-1.90752e-08
-1.71681e-07
-2.02334e-08
-1.66488e-07
-2.13564e-08
-1.61037e-07
-2.2439e-08
-1.55337e-07
-2.34755e-08
-1.49404e-07
-2.44599e-08
-1.4325e-07
-2.53853e-08
-1.36892e-07
-2.62445e-08
-1.30348e-07
-2.70298e-08
-1.23638e-07
-2.77325e-08
-1.16784e-07
-2.83437e-08
-1.0981e-07
-2.88536e-08
-1.02743e-07
-2.92517e-08
-9.56108e-08
-2.95272e-08
-8.84462e-08
-2.96686e-08
-8.12827e-08
-2.96639e-08
-7.41569e-08
-2.9501e-08
-6.71079e-08
-2.91677e-08
-6.01773e-08
-2.86519e-08
-5.34086e-08
-2.79421e-08
-4.68475e-08
-2.70278e-08
-4.05409e-08
-2.59e-08
-3.45368e-08
-2.45519e-08
-2.88832e-08
-2.29802e-08
-2.36274e-08
-2.11857e-08
-1.88145e-08
-1.91756e-08
-1.44869e-08
-1.69649e-08
-1.06816e-08
-1.45796e-08
-7.42997e-09
-1.20598e-08
-4.75528e-09
-9.46392e-09
-2.67229e-09
-6.87477e-09
-1.18691e-09
-4.40478e-09
-2.97556e-10
-2.20352e-09
-4.79484e-10
-3.606e-10
8.39829e-10
-1.40942e-09
3.16779e-09
-3.12068e-09
5.9129e-09
-5.47153e-09
8.87686e-09
-8.43714e-09
1.19125e-08
-1.19885e-08
1.49086e-08
-1.60917e-08
1.77834e-08
-2.07083e-08
2.04791e-08
-2.57962e-08
2.29571e-08
-3.13104e-08
2.51939e-08
-3.72042e-08
2.71776e-08
-4.34304e-08
2.8905e-08
-4.99421e-08
3.03797e-08
-5.66933e-08
3.161e-08
-6.36396e-08
3.26073e-08
-7.0739e-08
3.33855e-08
-7.79515e-08
3.39595e-08
-8.52399e-08
3.43449e-08
-9.25697e-08
3.45572e-08
-9.99087e-08
3.46116e-08
-1.07228e-07
3.45225e-08
-1.145e-07
3.43037e-08
-1.21701e-07
3.39676e-08
-1.28809e-07
3.35258e-08
-1.35803e-07
3.29886e-08
-1.42665e-07
3.23653e-08
-1.49378e-07
3.1664e-08
-1.55927e-07
3.08921e-08
-1.62298e-07
3.00558e-08
-1.68478e-07
2.91604e-08
-1.74456e-07
2.82107e-08
-1.80219e-07
2.72107e-08
-1.85759e-07
2.61639e-08
-1.91065e-07
2.50731e-08
-1.96128e-07
2.39409e-08
-2.00941e-07
2.27695e-08
-2.05495e-07
2.15608e-08
-2.09782e-07
2.03165e-08
-2.13796e-07
1.90382e-08
-2.17529e-07
1.77271e-08
-2.20974e-07
1.63847e-08
-2.24127e-07
1.50122e-08
-2.2698e-07
1.36109e-08
-2.29527e-07
1.21819e-08
-2.31765e-07
1.07266e-08
-2.33686e-07
9.24631e-09
-2.35288e-07
7.74236e-09
-2.36564e-07
6.2162e-09
-2.37512e-07
4.66936e-09
-2.38127e-07
3.10344e-09
-2.38406e-07
1.52018e-09
-2.38346e-07
-7.86036e-11
-2.37944e-07
-1.69094e-09
-2.37199e-07
-3.31476e-09
-2.36108e-07
-4.94783e-09
-2.34671e-07
-6.58779e-09
-2.32887e-07
-8.2321e-09
-2.30756e-07
-9.87806e-09
-2.28279e-07
-1.15228e-08
-2.25456e-07
-1.31632e-08
-2.2229e-07
-1.47959e-08
-2.18783e-07
-1.64175e-08
-2.1494e-07
-1.80241e-08
-2.10763e-07
-1.96116e-08
-2.0626e-07
-2.11756e-08
-2.01435e-07
-2.27114e-08
-1.96296e-07
-2.42138e-08
-1.90852e-07
-2.56773e-08
-1.85113e-07
-2.70958e-08
-1.79089e-07
-2.84626e-08
-1.72794e-07
-2.97708e-08
-1.66241e-07
-3.10126e-08
-1.59447e-07
-3.21796e-08
-1.52429e-07
-3.32626e-08
-1.45207e-07
-3.42519e-08
-1.37802e-07
-3.51369e-08
-1.3024e-07
-3.59062e-08
-1.22546e-07
-3.65478e-08
-1.14749e-07
-3.70487e-08
-1.06881e-07
-3.73955e-08
-9.89751e-08
-3.7574e-08
-9.10692e-08
-3.75697e-08
-8.32024e-08
-3.73678e-08
-7.54167e-08
-3.69534e-08
-6.77565e-08
-3.63121e-08
-6.02686e-08
-3.54301e-08
-5.30014e-08
-3.4295e-08
-4.60051e-08
-3.28963e-08
-3.93306e-08
-3.12265e-08
-3.30288e-08
-2.92819e-08
-2.71503e-08
-2.70643e-08
-2.17436e-08
-2.45823e-08
-1.68546e-08
-2.18539e-08
-1.25254e-08
-1.89089e-08
-8.79274e-09
-1.57924e-08
-5.68807e-09
-1.25686e-08
-3.23679e-09
-9.32605e-09
-1.45933e-09
-6.18225e-09
-3.73437e-10
-3.28942e-09
-8.52919e-10
-4.28875e-10
1.2687e-09
-1.65739e-09
4.3963e-09
-3.6385e-09
7.894e-09
-6.33152e-09
1.15699e-08
-9.69731e-09
1.52782e-08
-1.36957e-08
1.8907e-08
-1.82843e-08
2.2372e-08
-2.3418e-08
2.56128e-08
-2.90496e-08
2.85887e-08
-3.51299e-08
3.12742e-08
-4.1609e-08
3.36567e-08
-4.84367e-08
3.57327e-08
-5.55634e-08
3.75064e-08
-6.29406e-08
3.89872e-08
-7.05218e-08
4.01885e-08
-7.82624e-08
4.11262e-08
-8.61205e-08
4.18176e-08
-9.40566e-08
4.2281e-08
-1.02034e-07
4.25347e-08
-1.10019e-07
4.25965e-08
-1.1798e-07
4.24836e-08
-1.25889e-07
4.22123e-08
-1.33719e-07
4.17975e-08
-1.41446e-07
4.12531e-08
-1.49049e-07
4.05915e-08
-1.56507e-07
3.98239e-08
-1.63804e-07
3.89602e-08
-1.70921e-07
3.80093e-08
-1.77844e-07
3.69787e-08
-1.84559e-07
3.58752e-08
-1.91052e-07
3.47044e-08
-1.97313e-07
3.34714e-08
-2.03329e-07
3.21804e-08
-2.09091e-07
3.0835e-08
-2.14589e-07
2.94385e-08
-2.19813e-07
2.79936e-08
-2.24755e-07
2.65027e-08
-2.29406e-07
2.4968e-08
-2.3376e-07
2.33913e-08
-2.37807e-07
2.17745e-08
-2.41541e-07
2.01192e-08
-2.44956e-07
1.8427e-08
-2.48045e-07
1.66996e-08
-2.50801e-07
1.49384e-08
-2.5322e-07
1.31451e-08
-2.55295e-07
1.13214e-08
-2.57021e-07
9.46892e-09
-2.58395e-07
7.58948e-09
-2.5941e-07
5.68498e-09
-2.60064e-07
3.75742e-09
-2.60353e-07
1.80895e-09
-2.60274e-07
-1.5817e-10
-2.59823e-07
-2.14153e-09
-2.58999e-07
-4.13857e-09
-2.578e-07
-6.14654e-09
-2.56226e-07
-8.16252e-09
-2.54274e-07
-1.01834e-08
-2.51947e-07
-1.22058e-08
-2.49243e-07
-1.42263e-08
-2.46165e-07
-1.6241e-08
-2.42715e-07
-1.82458e-08
-2.38896e-07
-2.02365e-08
-2.34712e-07
-2.22083e-08
-2.30167e-07
-2.41562e-08
-2.25268e-07
-2.60748e-08
-2.20021e-07
-2.79583e-08
-2.14435e-07
-2.98003e-08
-2.08518e-07
-3.1594e-08
-2.02282e-07
-3.33321e-08
-1.95738e-07
-3.50065e-08
-1.88901e-07
-3.66084e-08
-1.81785e-07
-3.81285e-08
-1.74408e-07
-3.95565e-08
-1.66789e-07
-4.08814e-08
-1.5895e-07
-4.20913e-08
-1.50913e-07
-4.31733e-08
-1.42706e-07
-4.41138e-08
-1.34355e-07
-4.48981e-08
-1.25893e-07
-4.55109e-08
-1.17353e-07
-4.59359e-08
-1.0877e-07
-4.61562e-08
-1.00186e-07
-4.61546e-08
-9.16398e-08
-4.59135e-08
-8.31777e-08
-4.54155e-08
-7.48463e-08
-4.46435e-08
-6.66948e-08
-4.35816e-08
-5.87744e-08
-4.22154e-08
-5.11378e-08
-4.05329e-08
-4.38385e-08
-3.85257e-08
-3.69306e-08
-3.61898e-08
-3.04675e-08
-3.35274e-08
-2.45012e-08
-3.05486e-08
-1.90818e-08
-2.72733e-08
-1.42563e-08
-2.37344e-08
-1.00681e-08
-1.99806e-08
-6.55684e-09
-1.60798e-08
-3.75892e-09
-1.2124e-08
-1.70879e-09
-8.23239e-09
-4.41794e-10
-4.55641e-09
-1.29471e-09
-4.90725e-10
1.75943e-09
-1.88476e-09
5.79033e-09
-4.11701e-09
1.01263e-08
-7.13088e-09
1.45838e-08
-1.08738e-08
1.90212e-08
-1.52948e-08
2.33279e-08
-2.03426e-08
2.74198e-08
-2.59654e-08
3.12357e-08
-3.21105e-08
3.47337e-08
-3.87243e-08
3.78881e-08
-4.57534e-08
4.06857e-08
-5.31445e-08
4.31238e-08
-6.08455e-08
4.52074e-08
-6.88056e-08
4.69474e-08
-7.69761e-08
4.8359e-08
-8.53104e-08
4.94606e-08
-9.37648e-08
5.02719e-08
-1.02298e-07
5.0814e-08
-1.10871e-07
5.11079e-08
-1.19449e-07
5.11744e-08
-1.27999e-07
5.10333e-08
-1.3649e-07
5.07036e-08
-1.44895e-07
5.02026e-08
-1.53189e-07
4.95467e-08
-1.61348e-07
4.87505e-08
-1.69351e-07
4.78271e-08
-1.77179e-07
4.67883e-08
-1.84814e-07
4.56445e-08
-1.9224e-07
4.44047e-08
-1.99442e-07
4.30771e-08
-2.06406e-07
4.16684e-08
-2.13119e-07
4.01846e-08
-2.1957e-07
3.86309e-08
-2.25746e-07
3.70117e-08
-2.31639e-07
3.53309e-08
-2.37237e-07
3.35917e-08
-2.42531e-07
3.17973e-08
-2.47514e-07
2.99502e-08
-2.52175e-07
2.80528e-08
-2.56508e-07
2.61072e-08
-2.60504e-07
2.41156e-08
-2.64157e-07
2.20799e-08
-2.6746e-07
2.00021e-08
-2.70405e-07
1.78841e-08
-2.72988e-07
1.57278e-08
-2.75202e-07
1.35353e-08
-2.77042e-07
1.13087e-08
-2.78502e-07
9.05003e-09
-2.79579e-07
6.76174e-09
-2.80268e-07
4.4462e-09
-2.80565e-07
2.106e-09
-2.80467e-07
-2.56145e-10
-2.79971e-07
-2.63732e-09
-2.79075e-07
-5.03443e-09
-2.77778e-07
-7.4442e-09
-2.76077e-07
-9.86312e-09
-2.73973e-07
-1.22874e-08
-2.71466e-07
-1.47132e-08
-2.68556e-07
-1.7136e-08
-2.65246e-07
-1.95515e-08
-2.61537e-07
-2.19547e-08
-2.57433e-07
-2.43404e-08
-2.52938e-07
-2.67031e-08
-2.48058e-07
-2.90366e-08
-2.42798e-07
-3.13345e-08
-2.37166e-07
-3.35898e-08
-2.31172e-07
-3.5795e-08
-2.24824e-07
-3.79419e-08
-2.18134e-07
-4.00217e-08
-2.11116e-07
-4.20247e-08
-2.03784e-07
-4.39406e-08
-1.96154e-07
-4.57581e-08
-1.88245e-07
-4.74652e-08
-1.80078e-07
-4.90487e-08
-1.71675e-07
-5.04945e-08
-1.63061e-07
-5.17874e-08
-1.54264e-07
-5.29113e-08
-1.45313e-07
-5.3849e-08
-1.36241e-07
-5.45824e-08
-1.27085e-07
-5.50925e-08
-1.17881e-07
-5.53597e-08
-1.08672e-07
-5.53638e-08
-9.95009e-08
-5.50844e-08
-9.04149e-08
-5.45015e-08
-8.14629e-08
-5.35954e-08
-7.26966e-08
-5.23479e-08
-6.41694e-08
-5.07426e-08
-5.59364e-08
-4.87659e-08
-4.80539e-08
-4.64083e-08
-4.05784e-08
-4.36653e-08
-3.35667e-08
-4.05392e-08
-2.70744e-08
-3.70408e-08
-2.1156e-08
-3.31918e-08
-1.58636e-08
-2.90267e-08
-1.12477e-08
-2.45966e-08
-7.35612e-09
-1.99714e-08
-4.23595e-09
-1.52441e-08
-1.93457e-09
-1.05338e-08
-5.02785e-10
-5.9882e-09
-1.7975e-09
-5.46436e-10
2.30586e-09
-2.09178e-09
7.33567e-09
-4.55579e-09
1.25903e-08
-7.86794e-09
1.78959e-08
-1.19635e-08
2.31167e-08
-1.6781e-08
2.81455e-08
-2.22609e-08
3.28997e-08
-2.83443e-08
3.7319e-08
-3.49728e-08
4.13622e-08
-4.20885e-08
4.50038e-08
-4.96341e-08
4.82313e-08
-5.75533e-08
5.1043e-08
-6.57913e-08
5.34454e-08
-7.42952e-08
5.54513e-08
-8.30142e-08
5.7078e-08
-9.18998e-08
5.83462e-08
-1.00907e-07
5.92786e-08
-1.09991e-07
5.9899e-08
-1.19115e-07
6.02312e-08
-1.28239e-07
6.02988e-08
-1.3733e-07
6.01246e-08
-1.46357e-07
5.97302e-08
-1.5529e-07
5.91357e-08
-1.64103e-07
5.83596e-08
-1.72771e-07
5.74189e-08
-1.81273e-07
5.63287e-08
-1.89587e-07
5.51028e-08
-1.97696e-07
5.37532e-08
-2.05582e-07
5.22905e-08
-2.13229e-07
5.0724e-08
-2.20622e-07
4.90618e-08
-2.27749e-07
4.7311e-08
-2.34595e-07
4.54776e-08
-2.41151e-07
4.35668e-08
-2.47403e-07
4.15833e-08
-2.53342e-07
3.95311e-08
-2.58959e-07
3.74137e-08
-2.64243e-07
3.52342e-08
-2.69186e-07
3.29955e-08
-2.73779e-07
3.07003e-08
-2.78014e-07
2.83511e-08
-2.81884e-07
2.59501e-08
-2.85382e-07
2.34998e-08
-2.885e-07
2.10024e-08
-2.91233e-07
1.84604e-08
-2.93573e-07
1.5876e-08
-2.95517e-07
1.32518e-08
-2.97057e-07
1.05904e-08
-2.9819e-07
7.89452e-09
-2.98911e-07
5.167e-09
-2.99215e-07
2.41089e-09
-2.99101e-07
-3.70569e-10
-2.98564e-07
-3.17396e-09
-2.97603e-07
-5.99565e-09
-2.96216e-07
-8.83175e-09
-2.94401e-07
-1.16781e-08
-2.92158e-07
-1.45304e-08
-2.89487e-07
-1.73839e-08
-2.86389e-07
-2.02335e-08
-2.82867e-07
-2.3074e-08
-2.78922e-07
-2.58996e-08
-2.74558e-07
-2.87042e-08
-2.6978e-07
-3.14811e-08
-2.64593e-07
-3.42234e-08
-2.59005e-07
-3.69233e-08
-2.53022e-07
-3.95728e-08
-2.46654e-07
-4.21628e-08
-2.39912e-07
-4.46839e-08
-2.32808e-07
-4.71257e-08
-2.25356e-07
-4.94769e-08
-2.17571e-07
-5.17255e-08
-2.0947e-07
-5.38583e-08
-2.01074e-07
-5.58612e-08
-1.92404e-07
-5.77189e-08
-1.83484e-07
-5.9415e-08
-1.74339e-07
-6.09319e-08
-1.64999e-07
-6.2251e-08
-1.55496e-07
-6.33523e-08
-1.45863e-07
-6.42151e-08
-1.36139e-07
-6.48174e-08
-1.26361e-07
-6.51368e-08
-1.16575e-07
-6.51501e-08
-1.06825e-07
-6.48343e-08
-9.71605e-08
-6.41663e-08
-8.7632e-08
-6.31239e-08
-7.82933e-08
-6.16866e-08
-6.92001e-08
-5.98357e-08
-6.04099e-08
-5.75562e-08
-5.19813e-08
-5.48369e-08
-4.39739e-08
-5.16727e-08
-3.64474e-08
-4.80657e-08
-2.94614e-08
-4.40268e-08
-2.30749e-08
-3.95783e-08
-1.73456e-08
-3.47561e-08
-1.23304e-08
-2.96117e-08
-8.08578e-09
-2.4216e-08
-4.66846e-09
-1.86615e-08
-2.13751e-09
-1.30647e-08
-5.56916e-10
-7.5688e-09
-2.35442e-09
-5.96469e-10
2.90233e-09
-2.27949e-09
9.0187e-09
-4.95623e-09
1.5267e-08
-8.54412e-09
2.14838e-08
-1.29675e-08
2.75401e-08
-1.81554e-08
3.33334e-08
-2.40401e-08
3.87843e-08
-3.05558e-08
4.38348e-08
-3.76385e-08
4.8445e-08
-4.52257e-08
5.2591e-08
-5.32563e-08
5.62619e-08
-6.16709e-08
5.94576e-08
-7.04119e-08
6.21865e-08
-7.94242e-08
6.44636e-08
-8.8655e-08
6.63087e-08
-9.80542e-08
6.77454e-08
-1.07574e-07
6.87989e-08
-1.17172e-07
6.94961e-08
-1.26804e-07
6.98638e-08
-1.36434e-07
6.99286e-08
-1.46026e-07
6.97162e-08
-1.55546e-07
6.92507e-08
-1.64966e-07
6.85552e-08
-1.74257e-07
6.76504e-08
-1.83393e-07
6.65558e-08
-1.92353e-07
6.52885e-08
-2.01115e-07
6.38642e-08
-2.09658e-07
6.22967e-08
-2.17966e-07
6.05981e-08
-2.26021e-07
5.87791e-08
-2.33808e-07
5.68491e-08
-2.41313e-07
5.48162e-08
-2.48523e-07
5.26874e-08
-2.55425e-07
5.04688e-08
-2.62008e-07
4.81659e-08
-2.6826e-07
4.57832e-08
-2.74171e-07
4.3325e-08
-2.79732e-07
4.07949e-08
-2.84933e-07
3.81963e-08
-2.89765e-07
3.55323e-08
-2.9422e-07
3.28059e-08
-2.98289e-07
3.00198e-08
-3.01966e-07
2.71768e-08
-3.05243e-07
2.42796e-08
-3.08114e-07
2.1331e-08
-3.10572e-07
1.83337e-08
-3.12611e-07
1.52907e-08
-3.14225e-07
1.2205e-08
-3.15411e-07
9.07976e-09
-3.16162e-07
5.91834e-09
-3.16475e-07
2.72427e-09
-3.16347e-07
-4.98722e-10
-3.15774e-07
-3.74666e-09
-3.14755e-07
-7.01533e-09
-3.13286e-07
-1.03002e-08
-3.11368e-07
-1.35966e-08
-3.08999e-07
-1.68993e-08
-3.0618e-07