/*--------------------------------*- C++ -*----------------------------------*\
| =========                 |                                                 |
| \\      /  F ield         | OpenFOAM: The Open Source CFD Toolbox           |
|  \\    /   O peration     | Version:  2512                                  |
|   \\  /    A nd           | Website:  www.openfoam.com                      |
|    \\/     M anipulation  |                                                 |
\*---------------------------------------------------------------------------*/
FoamFile
{
    version     2.0;
    format      ascii;
    arch        "LSB;label=32;scalar=64";
    class       volScalarField;
    location    "0.28";
    object      p;
}
// * * * * * * * * * * * * * * * * * * * * * * * * * * * * * * * * * * * * * //

dimensions      [0 2 -2 0 0 0 0];

internalField   nonuniform List<scalar> 
10000
(
-2.00438e-09
5.4337e-07
-2.71342e-05
-8.28994e-05
-0.000160305
-0.000253473
-0.000357214
-0.000466949
-0.000578776
-0.000689514
-0.000796499
-0.00089753
-0.000990805
-0.00107486
-0.00114854
-0.00121095
-0.00126135
-0.00129918
-0.00132402
-0.00133555
-0.00133359
-0.00131803
-0.00128878
-0.00124585
-0.00118926
-0.00111906
-0.00103536
-0.000938273
-0.000827948
-0.000704542
-0.000568236
-0.000419222
-0.000257702
-8.39008e-05
0.000101924
0.000299487
0.000508476
0.000728558
0.000959362
0.00120048
0.00145147
0.00171185
0.00198109
0.00225862
0.00254381
0.00283599
0.00313445
0.0034384
0.003747
0.00405935
0.00437449
0.00469142
0.00500913
0.0053265
0.00564242
0.00595571
0.00626521
0.00656969
0.00686793
0.00715869
0.00744073
0.00771285
0.00797386
0.00822263
0.00845802
0.00867899
0.00888455
0.00907377
0.00924584
0.00940003
0.00953573
0.00965244
0.00974978
0.00982751
0.00988555
0.00992395
0.00994292
0.00994282
0.0099242
0.00988778
0.00983444
0.00976524
0.00968141
0.00958432
0.0094755
0.00935669
0.00922978
0.00909682
0.00896009
0.00882203
0.00868527
0.00855269
0.00842738
0.00831267
0.00821215
0.00812951
0.00806827
0.00803147
0.00802109
0.00803217
-8.10389e-07
-5.02117e-07
-2.5363e-05
-7.31039e-05
-0.000138302
-0.00021678
-0.000304647
-0.000398213
-0.000494179
-0.000589698
-0.000682369
-0.000770151
-0.000851318
-0.000924449
-0.000988385
-0.00104218
-0.00108509
-0.00111651
-0.00113596
-0.00114309
-0.00113765
-0.00111949
-0.00108849
-0.0010446
-0.000987816
-0.000918156
-0.000835687
-0.000740492
-0.000632689
-0.000512424
-0.00037986
-0.000235168
-7.85421e-05
8.97979e-05
0.000269603
0.000460606
0.000662505
0.000874965
0.00109761
0.00133005
0.00157185
0.00182253
0.00208159
0.00234846
0.00262252
0.00290315
0.00318963
0.00348122
0.00377711
0.00407641
0.00437823
0.00468163
0.0049856
0.00528911
0.00559108
0.00589044
0.00618605
0.00647678
0.00676148
0.00703897
0.0073081
0.00756774
0.0078168
0.00805422
0.00827895
0.00849003
0.00868653
0.00886762
0.00903255
0.00918067
0.0093114
0.00942432
0.0095191
0.00959554
0.00965359
0.00969332
0.00971496
0.00971887
0.00970559
0.00967584
0.00963047
0.0095705
0.00949711
0.00941159
0.00931542
0.00921023
0.00909781
0.00898009
0.00885917
0.00873731
0.00861692
0.00850055
0.00839093
0.00829093
0.00820348
0.00813144
0.00807737
0.00804334
0.00803212
0.00804324
2.6098e-05
2.34953e-05
-1.41643e-06
-4.55426e-05
-0.000104179
-0.000173981
-0.00025185
-0.000334745
-0.000419826
-0.000504605
-0.000586913
-0.00066488
-0.000736928
-0.000801709
-0.000858085
-0.000905127
-0.000942087
-0.000968357
-0.000983456
-0.000987001
-0.000978711
-0.000958396
-0.000925922
-0.000881211
-0.000824226
-0.000754974
-0.000673491
-0.000579837
-0.00047411
-0.000356446
-0.000226985
-8.58818e-05
6.66784e-05
0.000230478
0.000405277
0.000590821
0.000786823
0.000992951
0.00120884
0.00143409
0.0016683
0.001911
0.00216168
0.0024198
0.00268477
0.00295596
0.00323271
0.00351427
0.00379985
0.00408862
0.00437972
0.00467223
0.0049652
0.00525763
0.0055485
0.00583676
0.00612136
0.00640121
0.0066752
0.00694222
0.00720118
0.00745102
0.0076907
0.00791922
0.00813561
0.00833893
0.00852835
0.00870308
0.00886242
0.00900576
0.0091326
0.00924252
0.00933524
0.0094106
0.00946857
0.00950923
0.00953281
0.00953968
0.00953039
0.00950562
0.00946621
0.00941315
0.00934754
0.00927066
0.00918389
0.00908879
0.00898706
0.00888052
0.00877112
0.00866094
0.00855218
0.00844718
0.00834835
0.00825818
0.00817918
0.00811379
0.00806408
0.00803188
0.00802084
0.00803306
8.08156e-05
7.02677e-05
4.16607e-05
-2.54563e-06
-5.88198e-05
-0.000124334
-0.00019646
-0.000272631
-0.000350447
-0.000427735
-0.000502553
-0.000573226
-0.000638318
-0.000696589
-0.000746978
-0.0007886
-0.000820718
-0.000842744
-0.000854211
-0.000854738
-0.000844032
-0.000821888
-0.00078815
-0.00074272
-0.000685556
-0.000616645
-0.000536001
-0.000443674
-0.000339753
-0.000224357
-9.76079e-05
4.03579e-05
0.000189359
0.000349185
0.000519613
0.000700398
0.000891255
0.00109186
0.00130186
0.00152089
0.00174854
0.00198434
0.00222781
0.00247841
0.0027356
0.00299875
0.00326722
0.00354027
0.00381715
0.00409705
0.00437915
0.00466256
0.00494634
0.00522956
0.00551122
0.00579033
0.00606586
0.00633676
0.00660197
0.00686042
0.00711108
0.00735294
0.007585
0.0078063
0.00801591
0.00821295
0.00839662
0.0085662
0.008721
0.00886046
0.00898409
0.00909154
0.00918253
0.00925693
0.00931471
0.00935598
0.00938096
0.00939004
0.00938373
0.00936272
0.00932782
0.00927998
0.00922026
0.00914987
0.00907016
0.00898262
0.00888884
0.00879054
0.00868953
0.00858776
0.00848724
0.00839008
0.00829848
0.00821464
0.00814077
0.00807903
0.00803129
0.00799932
0.00798694
0.0079969
0.000157706
0.000134938
9.95496e-05
5.26355e-05
-3.90995e-06
-6.77282e-05
-0.00013655
-0.000208251
-0.000280831
-0.000352423
-0.000421349
-0.000486127
-0.000545455
-0.000598219
-0.000643464
-0.000680364
-0.000708225
-0.000726486
-0.000734693
-0.000732489
-0.000719589
-0.000695774
-0.000660883
-0.00061481
-0.000557501
-0.000488925
-0.000409085
-0.00031803
-0.000215839
-0.000102602
2.157e-05
0.00015654
0.00030214
0.000458178
0.000624447
0.000800709
0.000986679
0.00118205
0.00138648
0.00159963
0.00182109
0.00205041
0.00228711
0.0025307
0.00278062
0.0030363
0.00329708
0.00356226
0.00383112
0.00410287
0.00437671
0.0046518
0.00492722
0.00520206
0.00547538
0.00574621
0.00601357
0.00627642
0.00653376
0.00678455
0.0070278
0.00726254
0.00748781
0.00770269
0.00790628
0.00809775
0.00827633
0.00844133
0.00859209
0.00872808
0.00884884
0.00895404
0.00904343
0.00911689
0.00917441
0.00921608
0.00924214
0.00925297
0.00924909
0.00923116
0.00919997
0.00915641
0.00910152
0.00903646
0.00896252
0.00888112
0.00879377
0.00870207
0.00860773
0.00851253
0.00841832
0.00832703
0.00824062
0.00816108
0.00809035
0.00803035
0.00798278
0.00794932
0.00793324
0.00793691
0.000251391
0.000213653
0.000169136
0.000117347
5.83452e-05
-5.91896e-06
-7.35296e-05
-0.000142748
-0.000211901
-0.000279438
-0.000343944
-0.000404125
-0.000458836
-0.000507089
-0.000548029
-0.000580915
-0.000605119
-0.000620117
-0.000625483
-0.000620879
-0.000606036
-0.000580739
-0.000544832
-0.00049821
-0.000440803
-0.000372573
-0.000293524
-0.000203697
-0.000103157
8.02539e-06
0.000129749
0.000261877
0.000404252
0.000556707
0.000719044
0.000891031
0.00107239
0.00126284
0.00146206
0.0016697
0.00188537
0.00210865
0.00233907
0.00257616
0.00281938
0.00306817
0.00332189
0.00357987
0.00384141
0.00410576
0.00437214
0.0046397
0.00490759
0.00517491
0.00544078
0.00570424
0.00596433
0.00622005
0.00647042
0.00671446
0.0069512
0.0071797
0.00739903
0.0076083
0.00780663
0.00799324
0.00816737
0.00832837
0.00847559
0.00860853
0.00872676
0.00882995
0.00891788
0.00899043
0.00904759
0.00908947
0.00911631
0.00912848
0.00912648
0.00911097
0.00908268
0.00904251
0.00899143
0.00893057
0.00886117
0.00878456
0.00870218
0.00861554
0.0085262
0.00843584
0.00834615
0.00825889
0.00817583
0.00809873
0.00802934
0.00796933
0.00792025
0.00788361
0.00786173
0.00785609
0.000356888
0.000302625
0.000247363
0.00018899
0.000125761
5.92462e-05
-8.94e-06
-7.73911e-05
-0.00014476
-0.000209764
-0.000271215
-0.000328027
-0.000379222
-0.000423938
-0.000461415
-0.00049101
-0.000512168
-0.000524419
-0.000527377
-0.000520732
-0.000504229
-0.00047767
-0.000440912
-0.000393851
-0.000336408
-0.000268551
-0.000190288
-0.000101648
-2.67863e-06
0.000106553
0.000225953
0.000355397
0.000494745
0.000643837
0.000802486
0.000970471
0.00114753
0.00133339
0.00152777
0.00173031
0.00194064
0.00215835
0.00238301
0.00261416
0.00285128
0.00309382
0.00334115
0.00359264
0.00384761
0.00410534
0.00436504
0.00462593
0.00488715
0.00514787
0.00540719
0.00566421
0.00591796
0.00616749
0.00641184
0.00665006
0.00688121
0.00710436
0.00731861
0.00752309
0.00771695
0.00789942
0.00806978
0.00822736
0.00837157
0.00850189
0.00861793
0.00871936
0.00880599
0.00887767
0.00893442
0.00897633
0.00900365
0.00901674
0.00901611
0.00900236
0.00897623
0.00893856
0.00889031
0.00883256
0.00876648
0.00869336
0.00861454
0.00853144
0.00844554
0.00835837
0.00827151
0.00818656
0.00810511
0.00802876
0.00795904
0.00789742
0.00784528
0.00780399
0.00777469
0.00775775
0.000469781
0.000398244
0.000331215
0.000265042
0.000196214
0.000126015
5.58302e-05
-1.32687e-05
-8.02267e-05
-0.000143994
-0.000203591
-0.000258128
-0.000306789
-0.000348842
-0.000383641
-0.000410626
-0.000429322
-0.000439326
-0.000440298
-0.000431958
-0.000414077
-0.000386487
-0.000349051
-0.000301667
-0.000244271
-0.000176836
-9.9365e-05
-1.18803e-05
8.55804e-05
0.000192952
0.000310143
0.000437049
0.000573547
0.000719487
0.00087468
0.00103892
0.00121198
0.00139359
0.00158348
0.00178131
0.00198673
0.00219934
0.00241874
0.00264449
0.00287608
0.00311296
0.00335456
0.00360025
0.00384937
0.00410122
0.00435503
0.00461005
0.00486545
0.0051204
0.00537406
0.00562552
0.00587383
0.00611807
0.00635729
0.00659059
0.00681702
0.00703568
0.00724567
0.00744615
0.00763628
0.00781531
0.00798252
0.00813727
0.00827896
0.00840709
0.00852128
0.00862122
0.00870668
0.00877756
0.00883384
0.00887564
0.00890318
0.00891684
0.00891708
0.00890451
0.00887983
0.00884388
0.00879756
0.0087419
0.00867804
0.0086072
0.00853065
0.00844974
0.00836584
0.00828039
0.00819484
0.00811067
0.00802932
0.00795222
0.00788072
0.00781609
0.0077596
0.00771245
0.00767455
0.00764511
0.0005863
0.000497259
0.000417902
0.000343093
0.000267659
0.000192681
0.000119347
4.84425e-05
-1.92299e-05
-8.2845e-05
-0.000141623
-0.000194843
-0.000241839
-0.000282015
-0.000314841
-0.000339847
-0.000356634
-0.000364866
-0.000364253
-0.000354555
-0.000335582
-0.000307186
-0.000269246
-0.000221669
-0.000164412
-9.74586e-05
-2.08006e-05
6.55504e-05
0.000161549
0.00026713
0.000382219
0.000506729
0.000640543
0.000783515
0.000935472
0.00109623
0.00126557
0.00144325
0.00162899
0.00182249
0.0020234
0.00223137
0.002446
0.00266686
0.00289347
0.0031253
0.00336178
0.00360233
0.00384629
0.00409298
0.00434165
0.00459157
0.00484194
0.00509197
0.00534079
0.00558753
0.00583126
0.00607106
0.00630603
0.00653526
0.00675781
0.00697278
0.00717931
0.00737654
0.00756367
0.00773993
0.00790461
0.00805707
0.00819673
0.0083231
0.00843578
0.00853446
0.00861894
0.00868909
0.00874488
0.00878644
0.00881399
0.00882788
0.00882857
0.00881665
0.0087928
0.00875782
0.0087126
0.00865812
0.00859547
0.00852581
0.00845037
0.00837041
0.00828723
0.00820216
0.00811658
0.00803183
0.00794924
0.00787009
0.00779555
0.00772674
0.00766482
0.00761088
0.00756359
0.00752101
0.000703276
0.000596834
0.000504864
0.000420883
0.000338149
0.000257565
0.000180168
0.000106524
3.72083e-05
-2.71692e-05
-8.60063e-05
-0.000138736
-0.000184838
-0.000223843
-0.000255333
-0.000278932
-0.000294322
-0.000301227
-0.00029941
-0.000288685
-0.000268899
-0.000239918
-0.000201645
-0.00015402
-9.70067e-05
-3.05909e-05
4.52323e-05
0.000130447
0.000225013
0.000328873
0.000441961
0.0005642
0.000695481
0.000835665
0.0009846
0.00114211
0.00130801
0.00148206
0.001664
0.00185352
0.00205034
0.0022541
0.00246443
0.0026809
0.00290307
0.00313041
0.00336239
0.00359843
0.0038379
0.00408012
0.00432437
0.00456995
0.00481608
0.00506195
0.00530675
0.00554959
0.00578956
0.00602577
0.00625731
0.00648329
0.00670276
0.00691485
0.00711868
0.00731341
0.00749823
0.00767237
0.00783512
0.00798585
0.00812397
0.00824898
0.0083605
0.0084582
0.00854188
0.00861138
0.0086667
0.00870793
0.0087353
0.00874914
0.00874991
0.00873816
0.00871457
0.0086799
0.00863502
0.00858087
0.0085185
0.00844904
0.00837364
0.0082935
0.00820987
0.00812401
0.00803718
0.00795065
0.00786563
0.00778328
0.00770463
0.00763065
0.00756245
0.00750102
0.00744382
0.00738788
0.000818023
0.000694463
0.000589811
0.000496341
0.000405823
0.000319026
0.000236883
0.000159758
8.80288e-05
2.21294e-05
-3.75025e-05
-9.04534e-05
-0.000136335
-0.000174794
-0.000205522
-0.000228239
-0.000242695
-0.000248685
-0.000246032
-0.000234591
-0.000214248
-0.000184901
-0.000146478
-9.89454e-05
-4.22814e-05
2.35282e-05
9.84833e-05
0.000182559
0.000275714
0.000377907
0.000489085
0.000609171
0.000738061
0.000875632
0.00102175
0.00117626
0.00133898
0.00150968
0.00168813
0.00187405
0.00206715
0.00226713
0.00247361
0.00268619
0.00290443
0.00312784
0.0033559
0.00358806
0.00382367
0.00406209
0.00430264
0.00454459
0.00478722
0.00502972
0.00527127
0.005511
0.00574802
0.00598144
0.00621037
0.00643389
0.00665108
0.00686105
0.00706294
0.00725588
0.00743907
0.00761174
0.00777317
0.00792271
0.00805977
0.00818386
0.00829456
0.00839157
0.00847464
0.00854362
0.00859849
0.00863934
0.00866639
0.00867995
0.00868046
0.00866847
0.00864462
0.00860966
0.00856443
0.00850985
0.00844693
0.00837675
0.00830042
0.00821911
0.00813397
0.00804623
0.00795708
0.00786769
0.0077792
0.00769264
0.00760895
0.007529
0.00745384
0.00738438
0.007317
0.0072477
0.000928205
0.000787937
0.000670698
0.000567566
0.000468938
0.000375506
0.000288104
0.000206917
0.000132161
6.41162e-05
3.06981e-06
-5.07056e-05
-9.69478e-05
-0.000135411
-0.000165888
-0.000188189
-0.000202138
-0.000207592
-0.000204439
-0.00019258
-0.000171926
-0.000142419
-0.000104028
-5.67344e-05
-5.21773e-07
6.46128e-05
0.000138655
0.000221575
0.000313341
0.000413921
0.000523267
0.000641303
0.000767934
0.000903057
0.00104655
0.00119829
0.00135808
0.00152572
0.00170098
0.00188364
0.00207342
0.00227002
0.00247308
0.00268223
0.00289705
0.00311707
0.00334179
0.00357064
0.00380303
0.00403831
0.00427581
0.00451487
0.00475472
0.00499458
0.00523364
0.00547103
0.00570589
0.00593731
0.0061644
0.00638625
0.00660194
0.00681055
0.00701121
0.00720308
0.00738533
0.00755717
0.00771787
0.00786677
0.00800328
0.00812687
0.00823713
0.00833374
0.00841643
0.00848504
0.00853953
0.00857998
0.0086066
0.0086197
0.00861968
0.00860707
0.00858251
0.00854672
0.00850053
0.00844482
0.00838059
0.00830887
0.00823074
0.00814732
0.00805974
0.00796915
0.00787669
0.00778349
0.00769058
0.00759894
0.00750943
0.00742282
0.00734014
0.00726228
0.00718456
0.00710209
0.00103178
0.000875298
0.000745648
0.000632807
0.000525885
0.000425519
0.00033248
0.000246795
0.000168533
9.78341e-05
3.48529e-05
-2.0255e-05
-6.73517e-05
-0.000106302
-0.000136979
-0.000159272
-0.000173094
-0.000178367
-0.000175024
-0.000163007
-0.000142281
-0.000112828
-7.46429e-05
-2.77213e-05
2.79365e-05
9.23153e-05
0.00016539
0.000247138
0.000337534
0.000436546
0.000544126
0.000660204
0.000784704
0.000917539
0.0010586
0.00120777
0.00136486
0.0015297
0.0017021
0.00188182
0.00206864
0.00226225
0.00246232
0.0026685
0.00288038
0.00309753
0.00331944
0.00354557
0.00377533
0.0040081
0.00424324
0.00448007
0.00471786
0.00495581
0.00519311
0.00542893
0.00566238
0.00589257
0.0061186
0.00633955
0.00655447
0.00676247
0.00696265
0.00715416
0.00733614
0.0075078
0.00766837
0.00781719
0.00795364
0.0080772
0.00818741
0.00828393
0.00836649
0.0084349
0.00848911
0.00852919
0.00855533
0.00856782
0.00856704
0.00855351
0.00852783
0.00849074
0.00844302
0.00838557
0.00831934
0.00824533
0.00816461
0.00807825
0.00798736
0.00789304
0.0077964
0.0076985
0.00760035
0.00750286
0.00740684
0.00731298
0.00722233
0.00713579
0.00704769
0.00695231
0.00112699
0.000954776
0.000812957
0.00069046
0.000575159
0.000467663
0.000368717
0.000278208
0.000196065
0.000122309
5.69756e-05
1.01808e-07
-4.82746e-05
-8.81157e-05
-0.000119381
-0.000142042
-0.00015608
-0.00016148
-0.000158223
-0.000146302
-0.000125732
-9.65325e-05
-5.87156e-05
-1.22973e-05
4.26954e-05
0.000106232
0.000178289
0.000258846
0.00034788
0.000445355
0.000551226
0.000665437
0.000787927
0.000918621
0.00105743
0.00120422
0.00135884
0.00152114
0.00169095
0.00186807
0.00205226
0.00224325
0.00244074
0.00264438
0.00285381
0.00306858
0.00328821
0.00351217
0.0037399
0.00397078
0.0042042
0.00443948
0.00467588
0.00491261
0.00514889
0.00538386
0.00561666
0.00584638
0.00607211
0.0062929
0.00650782
0.00671594
0.00691638
0.00710823
0.00729064
0.00746275
0.00762381
0.00777313
0.00791006
0.00803404
0.00814462
0.0082414
0.0083241
0.00839252
0.0084466
0.00848637
0.00851202
0.00852379
0.00852207
0.00850734
0.00848021
0.00844139
0.00839167
0.00833191
0.00826305
0.00818608
0.00810204
0.00801198
0.00791698
0.00781813
0.00771651
0.00761314
0.007509
0.00740498
0.00730183
0.00720022
0.00710122
0.00700576
0.00690729
0.00679927
0.00121227
0.0010248
0.000871081
0.000739035
0.000615352
0.000500624
0.000395582
0.000300008
0.0002137
0.000136565
6.85342e-05
9.5429e-06
-4.04669e-05
-8.15451e-05
-0.000113737
-0.000137092
-0.00015165
-0.000157449
-0.000154533
-0.000142948
-0.000122751
-9.39863e-05
-5.66933e-05
-1.09153e-05
4.33e-05
0.000105914
0.000176901
0.000256245
0.000343916
0.000439876
0.000544088
0.000656513
0.000777106
0.000905797
0.0010425
0.00118709
0.00133946
0.00149947
0.00166697
0.00184178
0.00202368
0.00221241
0.0024077
0.00260924
0.00281666
0.00302954
0.00324739
0.00346972
0.00369598
0.00392558
0.0041579
0.00439227
0.00462794
0.00486416
0.00510012
0.00533498
0.00556787
0.00579786
0.00602403
0.00624542
0.00646108
0.00667008
0.0068715
0.00706441
0.00724792
0.00742116
0.00758334
0.00773374
0.0078717
0.00799661
0.00810799
0.00820541
0.00828857
0.00835725
0.00841137
0.00845094
0.00847611
0.00848711
0.00848431
0.00846817
0.0084393
0.00839839
0.00834623
0.00828367
0.00821162
0.00813106
0.00804302
0.00794856
0.00784874
0.00774463
0.00763729
0.00752774
0.00741693
0.00730575
0.00719493
0.00708511
0.00697744
0.00687288
0.00676405
0.00664366
0.00128619
0.00108395
0.00091861
0.000777147
0.000645133
0.000523146
0.0004119
0.000311079
0.000220389
0.000139629
6.86245e-05
7.22633e-06
-4.47092e-05
-8.73196e-05
-0.000120732
-0.000145058
-0.000160396
-0.000166845
-0.000164507
-0.000153481
-0.000133852
-0.000105694
-6.90777e-05
-2.40762e-05
2.92495e-05
9.08605e-05
0.000160731
0.00023883
0.000325125
0.000419585
0.000522186
0.000632904
0.000751698
0.000878501
0.00101324
0.00115581
0.00130613
0.00146408
0.00162953
0.00180231
0.00198222
0.00216904
0.00236251
0.00256234
0.00276818
0.00297962
0.00319618
0.0034174
0.00364275
0.00387165
0.00410348
0.00433756
0.00457317
0.00480954
0.00504589
0.00528136
0.00551505
0.00574605
0.00597339
0.00619613
0.0064133
0.00662392
0.00682706
0.00702175
0.00720707
0.00738212
0.00754608
0.00769819
0.00783774
0.00796411
0.00807675
0.00817523
0.0082592
0.00832844
0.00838281
0.00842232
0.00844708
0.00845731
0.00845334
0.00843564
0.00840479
0.00836149
0.00830651
0.00824069
0.00816493
0.00808022
0.00798758
0.00788808
0.00778277
0.00767272
0.00755899
0.0074426
0.0073245
0.00720558
0.00708657
0.00696813
0.00685147
0.00673763
0.00661844
0.00648591
0.0013475
0.00113093
0.00095425
0.000803528
0.000663262
0.000534022
0.000416517
0.000310342
0.000215108
0.000130529
5.63395e-05
-7.69565e-06
-6.18022e-05
-0.000106196
-0.000141074
-0.000166607
-0.000182957
-0.000190286
-0.000188748
-0.00017848
-0.000159596
-0.000132208
-9.6424e-05
-5.23312e-05
4.99425e-09
6.05386e-05
0.000129231
0.000206045
0.000290949
0.000383923
0.000484956
0.000594028
0.000711102
0.00083612
0.000969019
0.00110974
0.0012582
0.0014143
0.00157793
0.00174894
0.00192716
0.00211239
0.0023044
0.0025029
0.00270757
0.00291799
0.00313374
0.00335436
0.00357933
0.00380808
0.00404
0.0042744
0.00451058
0.00474778
0.00498519
0.00522197
0.00545719
0.00568992
0.00591919
0.00614404
0.00636346
0.00657647
0.00678207
0.00697928
0.00716713
0.00734469
0.0075111
0.00766557
0.00780733
0.00793571
0.00805013
0.00815012
0.00823531
0.00830543
0.00836034
0.00839998
0.00842445
0.00843394
0.00842878
0.0084094
0.00837641
0.00833046
0.00827233
0.00820284
0.00812291
0.00803354
0.00793575
0.00783061
0.00771919
0.00760258
0.00748183
0.00735798
0.00723199
0.00710477
0.00697709
0.00684962
0.00672368
0.00660037
0.0064708
0.00632628
0.001395
0.00116454
0.000976811
0.000816996
0.000668574
0.000532118
0.000408339
0.000296742
0.000196852
0.000108309
3.07727e-05
-3.6085e-05
-9.25659e-05
-0.000138951
-0.000175496
-0.00020244
-0.000220016
-0.000228435
-0.000227891
-0.000218557
-0.000200591
-0.00017414
-0.000139331
-9.6264e-05
-4.50137e-05
1.43609e-05
8.18097e-05
0.000157292
0.000240786
0.000332284
0.000431779
0.00053925
0.000654666
0.000777984
0.000909167
0.00104817
0.00119494
0.00134939
0.00151142
0.00168089
0.00185769
0.00204164
0.00223252
0.00243005
0.00263391
0.00284374
0.00305912
0.00327962
0.00350472
0.00373386
0.00396643
0.00420175
0.00443913
0.0046778
0.00491696
0.00515573
0.00539319
0.00562838
0.00586033
0.00608804
0.00631049
0.00652664
0.00673547
0.00693595
0.00712707
0.00730788
0.00747746
0.00763496
0.00777957
0.00791056
0.00802732
0.00812933
0.00821619
0.00828759
0.00834333
0.00838336
0.00840771
0.00841657
0.00841023
0.00838915
0.00835387
0.00830507
0.00824351
0.00817001
0.00808551
0.007991
0.00788755
0.00777622
0.00765813
0.00753436
0.00740599
0.00727408
0.00713963
0.00700359
0.00686676
0.00672988
0.00659433
0.00646134
0.00632129
0.00616484
0.00142761
0.00118366
0.00098516
0.000816431
0.000659967
0.000516356
0.000386307
0.000269253
0.000164641
7.20346e-05
-8.98204e-06
-7.88139e-05
-0.000137828
-0.000186367
-0.000224757
-0.000253302
-0.000272291
-0.000281981
-0.000282604
-0.000274373
-0.000257491
-0.00023213
-0.000198429
-0.0001565
-0.000106433
-4.83057e-05
1.78276e-05
9.19325e-05
0.000173997
0.000264016
0.000361982
0.000467878
0.000581683
0.000703378
0.000832948
0.000970368
0.00111559
0.00126854
0.00142915
0.00159733
0.00177297
0.00195591
0.00214595
0.00234282
0.00254625
0.00275587
0.00297132
0.00319215
0.00341787
0.00364791
0.00388167
0.00411849
0.00435767
0.00459846
0.00484001
0.00508147
0.00532188
0.00556026
0.00579564
0.00602698
0.00625323
0.0064733
0.00668613
0.00689065
0.00708583
0.00727065
0.00744414
0.00760538
0.00775353
0.00788778
0.00800749
0.00811209
0.00820112
0.00827423
0.0083312
0.0083719
0.00839637
0.00840475
0.00839734
0.00837454
0.00833691
0.00828511
0.00821988
0.00814208
0.00805264
0.00795259
0.007843
0.00772499
0.00759967
0.00746817
0.0073316
0.00719106
0.0070476
0.00690221
0.00675577
0.00660905
0.00646354
0.00632061
0.00616992
0.00600152
0.00144431
0.00118724
0.000978225
0.000800766
0.000636387
0.000485689
0.0003494
0.000226886
0.000117513
2.07702e-05
-6.38266e-05
-0.000136742
-0.000198413
-0.00024925
-0.000289641
-0.000319954
-0.000340521
-0.000351641
-0.000353591
-0.00034663
-0.000330988
-0.000306855
-0.000274384
-0.000233704
-0.000184928
-0.000128141
-6.3394e-05
9.28582e-06
8.98883e-05
0.000178407
0.000274835
0.000379163
0.000491393
0.000611528
0.000739567
0.000875496
0.00101928
0.00117088
0.00133026
0.00149734
0.00167204
0.00185422
0.00204368
0.00224021
0.00244353
0.00265333
0.00286924
0.00309083
0.00331762
0.00354904
0.00378452
0.0040234
0.00426498
0.0045085
0.0047531
0.00499791
0.00524197
0.00548429
0.00572385
0.00595959
0.00619041
0.00641519
0.00663283
0.00684222
0.00704226
0.00723188
0.00741005
0.00757581
0.00772821
0.00786644
0.00798976
0.00809756
0.00818933
0.00826467
0.00832329
0.00836504
0.00838992
0.00839805
0.0083897
0.00836525
0.00832525
0.00827035
0.00820129
0.00811893
0.00802424
0.00791826
0.00780212
0.00767694
0.00754388
0.00740411
0.00725877
0.00710903
0.00695601
0.00680076
0.00664421
0.0064872
0.00633135
0.00617815
0.00601661
0.00583611
0.00144415
0.00117429
0.000955001
0.00076898
0.00059682
0.000439127
0.000296645
0.000168679
5.45235e-05
-4.64018e-05
-0.000134645
-0.000210729
-0.000275159
-0.000328419
-0.000370955
-0.000403176
-0.000425461
-0.00043816
-0.000441596
-0.000436059
-0.000421797
-0.000399018
-0.000367899
-0.000328591
-0.000281217
-0.000225861
-0.000162572
-9.13747e-05
-1.2285e-05
7.46897e-05
0.000169551
0.00027231
0.000382986
0.000501599
0.00062816
0.00076267
0.000905118
0.00105549
0.00121378
0.00137994
0.00155389
0.00173551
0.00192465
0.00212109
0.00232462
0.00253493
0.00275166
0.00297441
0.00320269
0.00343597
0.00367367
0.00391516
0.00415971
0.00440656
0.00465485
0.00490368
0.0051521
0.00539908
0.00564358
0.0058845
0.00612069
0.006351
0.00657427
0.00678935
0.00699509
0.00719036
0.00737405
0.00754512
0.00770258
0.00784554
0.0079732
0.00808489
0.00818003
0.00825816
0.00831894
0.00836217
0.00838783
0.008396
0.00838692
0.00836095
0.00831862
0.00826057
0.00818755
0.00810044
0.00800023
0.007888
0.0077649
0.0076321
0.0074908
0.00734222
0.00718757
0.00702808
0.00686494
0.00669929
0.00653211
0.00636432
0.0061977
0.00603386
0.00586115
0.0056683
0.00142622
0.00114387
0.000914527
0.000720102
0.00054029
0.000375703
0.000227092
9.36969e-05
-2.52471e-05
-0.000130379
-0.000222308
-0.00030163
-0.000368917
-0.000424708
-0.000469502
-0.000503754
-0.000527893
-0.000542316
-0.000547385
-0.000543409
-0.000530656
-0.00050936
-0.000479722
-0.000441909
-0.000396045
-0.000342214
-0.000280464
-0.000210828
-0.000133323
-4.7952e-05
4.53035e-05
0.000146473
0.000255593
0.000372694
0.000497802
0.000630937
0.000772119
0.000921367
0.00107869
0.00124405
0.0014174
0.00159865
0.00178767
0.00198428
0.00218828
0.0023994
0.00261729
0.00284155
0.00307173
0.0033073
0.00354771
0.0037923
0.00404038
0.00429114
0.00454374
0.00479726
0.00505073
0.00530311
0.00555331
0.00580019
0.00604257
0.00627924
0.00650901
0.00673067
0.00694299
0.00714477
0.00733485
0.00751211
0.00767548
0.007824
0.0079568
0.00807313
0.00817235
0.00825391
0.00831743
0.00836268
0.00838955
0.00839812
0.00838859
0.00836129
0.00831674
0.00825555
0.00817851
0.00808651
0.00798056
0.00786179
0.00773136
0.00759051
0.00744049
0.00728258
0.00711807
0.00694828
0.00677446
0.00659783
0.00641946
0.00624037
0.00606247
0.00588757
0.00570329
0.00549772
0.00138962
0.00109506
0.000855879
0.000653206
0.000465868
0.000294484
0.000139805
1.02081e-06
-0.000122692
-0.000232036
-0.000327688
-0.000410312
-0.000480534
-0.000538945
-0.000586095
-0.000622494
-0.000648619
-0.000664904
-0.000671735
-0.000669445
-0.000658333
-0.000638655
-0.000610631
-0.000574434
-0.00053019
-0.000477985
-0.000417876
-0.000349899
-0.000274069
-0.000190375
-9.87825e-05
7.55608e-07
0.000108287
0.000223855
0.000347505
0.000479285
0.000619244
0.000767425
0.000923851
0.00108852
0.00126139
0.0014424
0.00163147
0.00182845
0.00203316
0.00224535
0.00246468
0.00269078
0.00292322
0.0031615
0.00340506
0.00365325
0.00390536
0.0041606
0.00441812
0.00467699
0.00493621
0.00519471
0.00545138
0.00570502
0.00595442
0.00619832
0.00643548
0.00666462
0.00688445
0.00709368
0.00729109
0.00747545
0.00764566
0.00780064
0.00793945
0.00806126
0.00816533
0.00825107
0.00831801
0.00836586
0.00839448
0.0084039
0.00839427
0.00836592
0.00831931
0.00825509
0.00817403
0.00807705
0.00796519
0.0078396
0.00770152
0.00755221
0.007393
0.00722525
0.00705035
0.00686967
0.00668458
0.00649638
0.00630623
0.00611525
0.00592554
0.00573905
0.00554271
0.00532392
0.00133349
0.00102698
0.000778159
0.000567394
0.000372646
0.000194557
3.38862e-05
-0.000110235
-0.000238691
-0.000352251
-0.00045166
-0.000537633
-0.000610852
-0.00067196
-0.000721562
-0.000760221
-0.000788454
-0.000806721
-0.000815434
-0.000814959
-0.000805622
-0.000787701
-0.000761423
-0.000726965
-0.000684458
-0.000633999
-0.000575652
-0.000509452
-0.000435403
-0.000353479
-0.000263629
-0.000165796
-5.99184e-05
5.40647e-05
0.000176224
0.000306637
0.000445377
0.000592509
0.000748074
0.000912087
0.00108455
0.00126544
0.00145469
0.0016522
0.00185781
0.00207127
0.00229229
0.00252052
0.00275556
0.00299691
0.00324402
0.00349625
0.0037529
0.00401316
0.00427619
0.00454104
0.00480669
0.00507205
0.00533594
0.00559716
0.00585443
0.00610647
0.00635195
0.00658952
0.00681783
0.0070355
0.00724122
0.00743371
0.00761173
0.00777415
0.00791993
0.00804814
0.00815795
0.00824868
0.0083198
0.00837096
0.00840196
0.00841276
0.00840349
0.00837442
0.00832603
0.00825893
0.00817392
0.00807193
0.00795403
0.00782142
0.00767536
0.00751722
0.00734838
0.0071703
0.00698445
0.00679231
0.00659532
0.00639491
0.00619235
0.00598885
0.00578671
0.00558804
0.00537904
0.00514639
0.001257
0.000938758
0.000680486
0.000461776
0.000259741
7.50439e-05
-9.15381e-05
-0.000240942
-0.000374121
-0.000491901
-0.000595084
-0.000684441
-0.00076071
-0.00082459
-0.000876741
-0.000917766
-0.000948212
-0.000968572
-0.00097929
-0.000980765
-0.000973343
-0.000957314
-0.000932913
-0.000900324
-0.000859691
-0.000811119
-0.000754676
-0.000690388
-0.000618244
-0.000538204
-0.000450208
-0.000354187
-0.000250064
-0.000137751
-1.71485e-05
0.000111846
0.000249328
0.000395379
0.000550064
0.000713431
0.000885518
0.00106634
0.00125586
0.00145401
0.00166063
0.00187553
0.00209845
0.00232906
0.00256696
0.00281171
0.00306274
0.00331943
0.00358106
0.00384687
0.00411597
0.00438742
0.00466017
0.0049331
0.00520499
0.00547461
0.00574064
0.00600173
0.00625649
0.00650349
0.0067413
0.00696846
0.00718356
0.00738523
0.00757215
0.00774308
0.00789688
0.00803249
0.00814902
0.00824568
0.00832186
0.00837714
0.00841124
0.00842406
0.00841569
0.00838636
0.00833652
0.0082668
0.00817797
0.008071
0.007947
0.00780718
0.0076529
0.00748557
0.00730668
0.00711777
0.00692042
0.00671619
0.00650667
0.00629338
0.00607771
0.00586102
0.00564575
0.00543422
0.00521184
0.00496456
0.00115934
0.000829573
0.000562005
0.000335487
0.00012629
-6.49118e-05
-0.000237333
-0.000391974
-0.000529853
-0.000651847
-0.000758812
-0.000851582
-0.000930955
-0.000997684
-0.00105247
-0.00109595
-0.00112871
-0.00115128
-0.00116413
-0.00116769
-0.00116232
-0.00114832
-0.00112594
-0.00109537
-0.00105677
-0.00101025
-0.000955864
-0.000893639
-0.000823547
-0.000745538
-0.000659543
-0.000565478
-0.000463241
-0.000352716
-0.000233776
-0.000106299
2.98304e-05
0.000174716
0.000328456
0.000491135