/*--------------------------------*- C++ -*----------------------------------*\
| =========                 |                                                 |
| \\      /  F ield         | OpenFOAM: The Open Source CFD Toolbox           |
|  \\    /   O peration     | Version:  2512                                  |
|   \\  /    A nd           | Website:  www.openfoam.com                      |
|    \\/     M anipulation  |                                                 |
\*---------------------------------------------------------------------------*/
FoamFile
{
    version     2.0;
    format      ascii;
    arch        "LSB;label=32;scalar=64";
    class       surfaceScalarField;
    location    "0.32";
    object      phi;
}
// * * * * * * * * * * * * * * * * * * * * * * * * * * * * * * * * * * * * * //

dimensions      [0 3 -1 0 0 0 0];

oriented        oriented;

internalField   nonuniform List<scalar> 
19800
(
6.79039e-11
-6.7916e-11
2.0071e-10
-1.32803e-10
3.2243e-10
-1.21728e-10
3.87806e-10
-6.5365e-11
3.74485e-10
1.33096e-11
2.72888e-10
1.01594e-10
8.05318e-11
1.92358e-10
-2.00858e-10
2.814e-10
-5.67218e-10
3.66362e-10
-1.01312e-09
4.45899e-10
-1.53244e-09
5.19318e-10
-2.11875e-09
5.86307e-10
-2.76554e-09
6.46799e-10
-3.46644e-09
7.00895e-10
-4.21523e-09
7.48794e-10
-5.00599e-09
7.9075e-10
-5.83304e-09
8.27055e-10
-6.69104e-09
8.58002e-10
-7.57495e-09
8.83907e-10
-8.48003e-09
9.05075e-10
-9.40182e-09
9.21791e-10
-1.03361e-08
9.34318e-10
-1.1279e-08
9.4291e-10
-1.22268e-08
9.47789e-10
-1.3176e-08
9.49155e-10
-1.41232e-08
9.47189e-10
-1.50652e-08
9.4204e-10
-1.5999e-08
9.33837e-10
-1.69217e-08
9.22684e-10
-1.78304e-08
9.08667e-10
-1.87222e-08
8.91858e-10
-1.95945e-08
8.72309e-10
-2.04446e-08
8.50055e-10
-2.12697e-08
8.25123e-10
-2.20673e-08
7.9753e-10
-2.28346e-08
7.67289e-10
-2.3569e-08
7.34408e-10
-2.42679e-08
6.98887e-10
-2.49286e-08
6.60736e-10
-2.55486e-08
6.19969e-10
-2.61252e-08
5.76608e-10
-2.66559e-08
5.30684e-10
-2.71381e-08
4.82229e-10
-2.75694e-08
4.31298e-10
-2.79473e-08
3.7797e-10
-2.82697e-08
3.22339e-10
-2.85342e-08
2.64517e-10
-2.87388e-08
2.0463e-10
-2.88817e-08
1.42835e-10
-2.8961e-08
7.93264e-11
-2.89753e-08
1.43079e-11
-2.89233e-08
-5.19915e-11
-2.8804e-08
-1.19308e-10
-2.86167e-08
-1.87358e-10
-2.83608e-08
-2.55832e-10
-2.80364e-08
-3.24388e-10
-2.76438e-08
-3.92673e-10
-2.71834e-08
-4.6032e-10
-2.66565e-08
-5.26934e-10
-2.60644e-08
-5.92103e-10
-2.5409e-08
-6.55404e-10
-2.46926e-08
-7.16407e-10
-2.39179e-08
-7.74681e-10
-2.30881e-08
-8.29793e-10
-2.22068e-08
-8.81311e-10
-2.1278e-08
-9.28812e-10
-2.03061e-08
-9.71892e-10
-1.92959e-08
-1.01016e-09
-1.82527e-08
-1.04326e-09
-1.71819e-08
-1.07083e-09
-1.60893e-08
-1.09258e-09
-1.49811e-08
-1.10822e-09
-1.38635e-08
-1.11754e-09
-1.27432e-08
-1.12032e-09
-1.16268e-08
-1.11644e-09
-1.0521e-08
-1.10579e-09
-9.43266e-09
-1.08833e-09
-8.36859e-09
-1.06407e-09
-7.33551e-09
-1.03308e-09
-6.34006e-09
-9.95455e-10
-5.38866e-09
-9.51385e-10
-4.48756e-09
-9.01099e-10
-3.64267e-09
-8.44889e-10
-2.85957e-09
-7.83096e-10
-2.14346e-09
-7.16119e-10
-1.49902e-09
-6.4443e-10
-9.30447e-10
-5.68575e-10
-4.41269e-10
-4.89185e-10
-3.42844e-11
-4.06992e-10
2.8859e-10
-3.22873e-10
5.26475e-10
-2.37882e-10
6.79823e-10
-1.53347e-10
7.50804e-10
-7.09832e-11
7.43956e-10
6.853e-12
6.67131e-10
7.68354e-11
5.32979e-10
1.34157e-10
3.61268e-10
1.71707e-10
1.82551e-10
1.78715e-10
4.36284e-11
1.38926e-10
4.36254e-11
1.32773e-10
-2.00688e-10
3.25976e-10
-3.26007e-10
4.5666e-10
-2.52414e-10
4.45035e-10
-5.37312e-11
2.41923e-10
2.16441e-10
-1.79128e-10
5.2264e-10
-8.28732e-10
8.41955e-10
-1.70707e-09
1.15974e-09
-2.80746e-09
1.46675e-09
-4.11885e-09
1.75729e-09
-5.62751e-09
2.02797e-09
-7.31814e-09
2.27693e-09
-9.17471e-09
2.50337e-09
-1.11809e-08
2.70713e-09
-1.33207e-08
2.88856e-09
-1.55783e-08
3.04831e-09
-1.79384e-08
3.18718e-09
-2.03865e-08
3.30611e-09
-2.29087e-08
3.40609e-09
-2.54917e-08
3.48812e-09
-2.81231e-08
3.55317e-09
-3.0791e-08
3.60217e-09
-3.3484e-08
3.63599e-09
-3.61917e-08
3.65543e-09
-3.89037e-08
3.66119e-09
-4.16105e-08
3.65393e-09
-4.43026e-08
3.6342e-09
-4.69713e-08
3.60249e-09
-4.96078e-08
3.55921e-09
-5.22038e-08
3.50468e-09
-5.47511e-08
3.43917e-09
-5.72418e-08
3.36292e-09
-5.96678e-08
3.27607e-09
-6.20214e-08
3.17875e-09
-6.42949e-08
3.07105e-09
-6.64807e-08
2.95306e-09
-6.85711e-08
2.82482e-09
-7.05586e-08
2.6864e-09
-7.24357e-08
2.53785e-09
-7.4195e-08
2.37926e-09
-7.58291e-08
2.21074e-09
-7.73309e-08
2.03244e-09
-7.86932e-08
1.84455e-09
-7.99092e-08
1.64731e-09
-8.09723e-08
1.44104e-09
-8.18761e-08
1.22611e-09
-8.26145e-08
1.00299e-09
-8.31821e-08
7.72192e-10
-8.35736e-08
5.34357e-10
-8.37845e-08
2.902e-10
-8.38107e-08
4.05341e-11
-8.3649e-08
-2.13746e-10
-8.32967e-08
-4.71643e-10
-8.2752e-08
-7.32058e-10
-8.2014e-08
-9.93812e-10
-8.10827e-08
-1.25564e-09
-7.99592e-08
-1.5162e-09
-7.86455e-08
-1.77407e-09
-7.71446e-08
-2.02777e-09
-7.5461e-08
-2.27577e-09
-7.35999e-08
-2.51649e-09
-7.1568e-08
-2.74832e-09
-6.9373e-08
-2.96964e-09
-6.7024e-08
-3.17884e-09
-6.45309e-08
-3.37432e-09
-6.19052e-08
-3.55451e-09
-5.91592e-08
-3.7179e-09
-5.63064e-08
-3.86304e-09
-5.3361e-08
-3.98858e-09
-5.03386e-08
-4.09326e-09
-4.72552e-08
-4.17594e-09
-4.41279e-08
-4.23561e-09
-4.0974e-08
-4.27142e-09
-3.78116e-08
-4.28267e-09
-3.46592e-08
-4.26885e-09
-3.15354e-08
-4.22961e-09
-2.84589e-08
-4.16481e-09
-2.54485e-08
-4.07452e-09
-2.25226e-08
-3.95898e-09
-1.96994e-08
-3.81868e-09
-1.69964e-08
-3.6543e-09
-1.44308e-08
-3.46676e-09
-1.20185e-08
-3.25718e-09
-9.77465e-09
-3.02693e-09
-7.71315e-09
-2.77762e-09
-5.84646e-09
-2.51112e-09
-4.18542e-09
-2.22963e-09
-2.73894e-09
-1.93566e-09
-1.51375e-09
-1.63219e-09
-5.13896e-10
-1.32272e-09
2.59711e-10
-1.01149e-09
8.10081e-10
-7.03717e-10
1.14501e-09
-4.05908e-10
1.27867e-09
-1.26794e-10
1.23321e-09
1.2229e-10
1.04138e-09
3.25981e-10
7.49661e-10
4.63428e-10
4.21461e-10
5.06919e-10
1.38434e-10
4.21944e-10
1.82054e-10
1.2211e-10
-3.22806e-10
2.53569e-10
-4.57464e-10
2.52792e-10
-2.51661e-10
2.64808e-11
1.72582e-10
-4.86409e-10
7.29333e-10
-1.3215e-09
1.35775e-09
-2.49519e-09
2.01565e-09
-4.00995e-09
2.67449e-09
-5.85844e-09
3.31525e-09
-8.0266e-09
3.92545e-09
-1.04958e-08
4.49722e-09
-1.32448e-08
5.02588e-09
-1.62504e-08
5.50895e-09
-1.94888e-08
5.94553e-09
-2.2936e-08
6.33576e-09
-2.65682e-08
6.68055e-09
-3.03623e-08
6.98126e-09
-3.42958e-08
7.23958e-09
-3.8347e-08
7.45735e-09
-4.24954e-08
7.63648e-09
-4.67211e-08
7.77888e-09
-5.10053e-08
7.8864e-09
-5.53301e-08
7.9608e-09
-5.96784e-08
8.00371e-09
-6.40338e-08
8.0166e-09
-6.83807e-08
8.0008e-09
-7.2704e-08
7.9575e-09
-7.69892e-08
7.88771e-09
-8.12223e-08
7.7923e-09
-8.53896e-08
7.67201e-09
-8.94779e-08
7.52744e-09
-9.3474e-08
7.35907e-09
-9.73653e-08
7.16729e-09
-1.01139e-07
6.95241e-09
-1.04783e-07
6.71466e-09
-1.08284e-07
6.45426e-09
-1.1163e-07
6.17136e-09
-1.1481e-07
5.86616e-09
-1.17811e-07
5.53883e-09
-1.20621e-07
5.18963e-09
-1.2323e-07
4.81883e-09
-1.25624e-07
4.42681e-09
-1.27793e-07
4.01404e-09
-1.29727e-07
3.5811e-09
-1.31415e-07
3.12873e-09
-1.32847e-07
2.65779e-09
-1.34013e-07
2.16931e-09
-1.34905e-07
1.66449e-09
-1.35516e-07
1.14473e-09
-1.35837e-07
6.11604e-10
-1.35863e-07
6.68954e-11
-1.3559e-07
-4.87417e-10
-1.35012e-07
-1.04916e-09
-1.34128e-07
-1.61597e-09
-1.32937e-07
-2.18528e-09
-1.31438e-07
-2.75435e-09
-1.29634e-07
-3.32028e-09
-1.27528e-07
-3.88002e-09
-1.25125e-07
-4.43039e-09
-1.22433e-07
-4.96809e-09
-1.1946e-07
-5.48975e-09
-1.16216e-07
-5.99193e-09
-1.12715e-07
-6.47118e-09
-1.08969e-07
-6.92405e-09
-1.04997e-07
-7.34713e-09
-1.00814e-07
-7.73707e-09
-9.64413e-08
-8.09068e-09
-9.18994e-08
-8.40486e-09
-8.72113e-08
-8.67674e-09
-8.24009e-08
-8.90365e-09
-7.74937e-08
-9.08318e-09
-7.25161e-08
-9.2132e-09
-6.74956e-08
-9.29191e-09
-6.24604e-08
-9.31786e-09
-5.74393e-08
-9.28996e-09
-5.24614e-08
-9.20753e-09
-4.75559e-08
-9.07029e-09
-4.2752e-08
-8.87841e-09
-3.80785e-08
-8.63248e-09
-3.35636e-08
-8.33359e-09
-2.92346e-08
-7.98325e-09
-2.51179e-08
-7.58349e-09
-2.12382e-08
-7.13683e-09
-1.76189e-08
-6.6463e-09
-1.4281e-08
-6.11549e-09
-1.12435e-08
-5.54858e-09
-8.52274e-09
-4.95043e-09
-6.13172e-09
-4.32669e-09
-4.07999e-09
-3.68393e-09
-2.37281e-09
-3.0299e-09
-1.01046e-09
-2.37384e-09
1.27865e-11
-1.72696e-09
7.10125e-10
-1.10324e-09
1.1033e-09
-5.19968e-10
1.22523e-09
3.61712e-13
1.12194e-09
4.29268e-10
8.55715e-10
7.29656e-10
5.07327e-10
8.55302e-10
1.78115e-10
7.51146e-10
3.60166e-10
6.70917e-11
-3.8989e-10
5.71251e-11
-4.47483e-10
-1.69136e-10
-2.53984e-11
-7.06126e-10
7.09575e-10
-1.61724e-09
1.64045e-09
-2.94077e-09
2.68128e-09
-4.69523e-09
3.77011e-09
-6.88396e-09
4.86323e-09
-9.49903e-09
5.93031e-09
-1.25243e-08
6.95068e-09
-1.59377e-08
7.91068e-09
-1.97135e-08
8.80171e-09
-2.38235e-08
9.61886e-09
-2.82377e-08
1.03598e-08
-3.29262e-08
1.10242e-08
-3.78584e-08
1.16128e-08
-4.30047e-08
1.21275e-08
-4.83358e-08
1.25707e-08
-5.38235e-08
1.29451e-08
-5.94407e-08
1.32536e-08
-6.51611e-08
1.34993e-08
-7.09598e-08
1.3685e-08
-7.68126e-08
1.38136e-08
-8.26967e-08
1.38877e-08
-8.85898e-08
1.39098e-08
-9.44709e-08
1.38819e-08
-1.0032e-07
1.38061e-08
-1.06116e-07
1.36841e-08
-1.11841e-07
1.35174e-08
-1.17476e-07
1.33071e-08
-1.23003e-07
1.30544e-08
-1.28404e-07
1.27601e-08
-1.33662e-07
1.2425e-08
-1.38759e-07
1.20495e-08
-1.43678e-07
1.16342e-08
-1.48404e-07
1.11794e-08
-1.52918e-07
1.06856e-08
-1.57205e-07
1.01531e-08
-1.61248e-07
9.58234e-09
-1.65032e-07
8.97375e-09
-1.68542e-07
8.32795e-09
-1.7176e-07
7.64564e-09
-1.74674e-07
6.92772e-09
-1.77268e-07
6.17527e-09
-1.79529e-07
5.38961e-09
-1.81444e-07
4.57229e-09
-1.83e-07
3.72517e-09
-1.84185e-07
2.85035e-09
-1.84991e-07
1.9503e-09
-1.85407e-07
1.02778e-09
-1.85426e-07
8.58615e-11
-1.85042e-07
-8.72016e-10
-1.84249e-07
-1.84209e-09
-1.83044e-07
-2.82029e-09
-1.81427e-07
-3.80222e-09
-1.79399e-07
-4.78316e-09
-1.76961e-07
-5.75817e-09
-1.74119e-07
-6.72203e-09
-1.7088e-07
-7.66931e-09
-1.67253e-07
-8.59439e-09
-1.63252e-07
-9.49154e-09
-1.58889e-07
-1.03549e-08
-1.54181e-07
-1.11787e-08
-1.49148e-07
-1.19569e-08
-1.43811e-07
-1.2684e-08
-1.38194e-07
-1.33541e-08
-1.32323e-07
-1.39618e-08
-1.26226e-07
-1.4502e-08
-1.19933e-07
-1.49698e-08
-1.13476e-07
-1.53607e-08
-1.06889e-07
-1.56706e-08
-1.00206e-07
-1.58959e-08
-9.34642e-08
-1.60337e-08
-8.67006e-08
-1.60815e-08
-7.99532e-08
-1.60374e-08
-7.32602e-08
-1.59005e-08
-6.66603e-08
-1.56702e-08
-6.01919e-08
-1.53469e-08
-5.38926e-08
-1.49317e-08
-4.77997e-08
-1.44265e-08
-4.1949e-08
-1.3834e-08
-3.63749e-08
-1.31577e-08
-3.11097e-08
-1.2402e-08
-2.61838e-08
-1.15723e-08
-2.16245e-08
-1.06748e-08
-1.74563e-08
-9.71681e-09
-1.36998e-08
-8.70691e-09
-1.03716e-08
-7.65489e-09
-7.4834e-09
-6.57215e-09
-5.04126e-09
-5.47203e-09
-3.0448e-09
-4.3703e-09
-1.486e-09
-3.28577e-09
-3.47971e-10
-2.24126e-09
3.96796e-10
-1.26473e-09
7.88024e-10
-3.90869e-10
8.80104e-10
3.37189e-10
7.44082e-10
8.65674e-10
4.70436e-10
1.12894e-09
1.72573e-10
1.04901e-09
5.3274e-10
-1.07663e-11
-3.79138e-10
-2.13095e-10
-2.45134e-10
-7.2902e-10
4.90533e-10
-1.64475e-09
1.6253e-09
-3.01905e-09
3.01475e-09
-4.88794e-09
4.55018e-09
-7.26871e-09
6.15088e-09
-1.01636e-08
7.75817e-09
-1.35634e-08
9.33003e-09
-1.74496e-08
1.0837e-08
-2.17977e-08
1.22587e-08
-2.65782e-08
1.35822e-08
-3.17587e-08
1.47993e-08
-3.73048e-08
1.59059e-08
-4.31812e-08
1.69006e-08
-4.93522e-08
1.77839e-08
-5.57825e-08
1.85579e-08
-6.24374e-08
1.92255e-08
-6.92828e-08
1.97905e-08
-7.62859e-08
2.02567e-08
-8.34148e-08
2.06283e-08
-9.0639e-08
2.09093e-08
-9.79291e-08
2.11037e-08
-1.05257e-07
2.12152e-08
-1.12594e-07
2.12474e-08
-1.19916e-07
2.12034e-08
-1.27196e-07
2.10861e-08
-1.3441e-07
2.0898e-08
-1.41533e-07
2.06412e-08
-1.48544e-07
2.03177e-08
-1.55419e-07
1.9929e-08
-1.62135e-07
1.94765e-08
-1.68671e-07
1.89612e-08
-1.75006e-07
1.83842e-08
-1.81118e-07
1.77461e-08
-1.86986e-07
1.70477e-08
-1.9259e-07
1.62896e-08
-1.97909e-07
1.54724e-08
-2.02924e-07
1.4597e-08
-2.07614e-07
1.36641e-08
-2.11961e-07
1.26748e-08
-2.15945e-07
1.16301e-08
-2.19549e-07
1.05316e-08
-2.22755e-07
9.38095e-09
-2.25546e-07
8.18032e-09
-2.27906e-07
6.93211e-09
-2.2982e-07
5.63921e-09
-2.31274e-07
4.30492e-09
-2.32257e-07
2.933e-09
-2.32757e-07
1.52769e-09
-2.32765e-07
9.37262e-11
-2.32273e-07
-1.36368e-09
-2.31276e-07
-2.83882e-09
-2.29771e-07
-4.3255e-09
-2.27756e-07
-5.81706e-09
-2.25233e-07
-7.30644e-09
-2.22205e-07
-8.78612e-09
-2.18679e-07
-1.02483e-08
-2.14663e-07
-1.16847e-08
-2.10171e-07
-1.30871e-08
-2.05215e-07
-1.44467e-08
-1.99816e-07
-1.57548e-08
-1.93992e-07
-1.70027e-08
-1.87767e-07
-1.81816e-08
-1.81168e-07
-1.92829e-08
-1.74224e-07
-2.02981e-08
-1.66966e-07
-2.12192e-08
-1.5943e-07
-2.20383e-08
-1.51652e-07
-2.27482e-08
-1.4367e-07
-2.33422e-08
-1.35526e-07
-2.38144e-08
-1.27263e-07
-2.41593e-08
-1.18924e-07
-2.43724e-08
-1.10555e-07
-2.44503e-08
-1.02203e-07
-2.43903e-08
-9.39124e-08
-2.41906e-08
-8.57316e-08
-2.38509e-08
-7.77068e-08
-2.33717e-08
-6.98838e-08
-2.27547e-08
-6.23076e-08
-2.20027e-08
-5.50214e-08
-2.11201e-08
-4.80668e-08
-2.01123e-08
-4.14828e-08
-1.89859e-08
-3.53059e-08
-1.77492e-08
-2.95688e-08
-1.64118e-08
-2.43008e-08
-1.49849e-08
-1.95262e-08
-1.34815e-08
-1.52647e-08
-1.19164e-08
-1.15298e-08
-1.03071e-08
-8.32838e-09
-8.67342e-09
-5.65983e-09
-7.03885e-09
-3.51467e-09
-5.43093e-09
-1.87348e-09
-3.88246e-09
-7.05387e-10
-2.43283e-09
3.34653e-11
-1.12972e-09
4.0179e-10
-3.11321e-11
4.75058e-10
7.92399e-10
3.48105e-10
1.25588e-09
1.38984e-10
1.25813e-09
6.71723e-10
-9.95681e-11
-2.79572e-10
-5.24169e-10
1.79454e-10
-1.37102e-09
1.3374e-09
-2.71151e-09
2.9658e-09
-4.59487e-09
4.8981e-09
-7.05089e-09
7.00619e-09
-1.00927e-08
9.19268e-09
-1.37195e-08
1.1385e-08
-1.79194e-08
1.35299e-08
-2.26716e-08
1.55891e-08
-2.79484e-08
1.75355e-08
-3.37173e-08
1.93511e-08
-3.99424e-08
2.10244e-08
-4.65854e-08
2.25489e-08
-5.36067e-08
2.39219e-08
-6.09663e-08
2.51434e-08
-6.8624e-08
2.62156e-08
-7.65403e-08
2.71418e-08
-8.46763e-08
2.79265e-08
-9.29943e-08
2.85746e-08
-1.01457e-07
2.90914e-08
-1.1003e-07
2.9482e-08
-1.18678e-07
2.97517e-08
-1.27368e-07
2.99053e-08
-1.36068e-07
2.99476e-08
-1.44748e-07
2.98827e-08
-1.53376e-07
2.97145e-08
-1.61924e-07
2.94464e-08
-1.70365e-07
2.90814e-08
-1.78669e-07
2.8622e-08
-1.8681e-07
2.80705e-08
-1.94763e-07
2.74287e-08
-2.025e-07
2.66983e-08
-2.09996e-07
2.58806e-08
-2.17227e-07
2.49768e-08
-2.24167e-07
2.39879e-08
-2.30793e-07
2.29149e-08
-2.37079e-07
2.17589e-08
-2.43003e-07
2.05211e-08
-2.48541e-07
1.92026e-08
-2.53672e-07
1.7805e-08
-2.58372e-07
1.63301e-08
-2.6262e-07
1.478e-08
-2.66397e-07
1.31573e-08
-2.69681e-07
1.14651e-08
-2.72456e-07
9.70683e-09
-2.74703e-07
7.88665e-09
-2.76408e-07
6.00925e-09
-2.77555e-07
4.07998e-09
-2.78132e-07
2.10484e-09
-2.78129e-07
9.04777e-11
-2.77537e-07
-1.95576e-09
-2.7635e-07
-4.02589e-09
-2.74564e-07
-6.11124e-09
-2.72178e-07
-8.20254e-09
-2.69195e-07
-1.02899e-08
-2.65618e-07
-1.23629e-08
-2.61456e-07
-1.44107e-08
-2.56718e-07
-1.64219e-08
-2.51421e-07
-1.83848e-08
-2.4558e-07
-2.02875e-08
-2.39217e-07
-2.2118e-08
-2.32356e-07
-2.3864e-08
-2.25024e-07
-2.55135e-08
-2.17252e-07
-2.70546e-08
-2.09074e-07
-2.84756e-08
-2.00528e-07
-2.97654e-08
-1.91653e-07
-3.09132e-08
-1.82493e-07
-3.1909e-08
-1.73091e-07
-3.27437e-08
-1.63497e-07
-3.34089e-08
-1.53759e-07
-3.38973e-08
-1.43928e-07
-3.42028e-08
-1.34058e-07
-3.43205e-08
-1.24202e-07
-3.42468e-08
-1.14413e-07
-3.39795e-08
-1.04746e-07
-3.3518e-08
-9.52543e-08
-3.28631e-08
-8.59917e-08
-3.20173e-08
-7.70097e-08
-3.09848e-08
-6.83583e-08
-2.97715e-08
-6.00854e-08
-2.83852e-08
-5.2236e-08
-2.68352e-08
-4.4852e-08
-2.51333e-08
-3.7971e-08
-2.32928e-08
-3.16263e-08
-2.13296e-08
-2.5846e-08
-1.92617e-08
-2.06523e-08
-1.71101e-08
-1.60606e-08
-1.48987e-08
-1.2079e-08
-1.2655e-08
-8.707e-09
-1.04109e-08
-5.93458e-09
-8.20334e-09
-3.74117e-09
-6.07587e-09
-2.09432e-09
-4.07969e-09
-9.48388e-10
-2.27565e-09
-2.43162e-10
-7.36354e-10
9.78943e-11
4.51338e-10
1.69695e-10
1.18408e-09
8.86562e-11
1.33917e-09
7.60378e-10
-1.92738e-10
-8.68276e-11
-8.55243e-10
8.41948e-10
-2.05723e-09
2.5394e-09
-3.85152e-09
4.76009e-09
-6.27434e-09
7.32093e-09
-9.34631e-09
1.00782e-08
-1.3074e-08
1.29203e-08
-1.74517e-08
1.57627e-08
-2.24636e-08
1.85419e-08
-2.80856e-08
2.1211e-08
-3.42868e-08
2.37368e-08
-4.10317e-08
2.6096e-08
-4.82808e-08
2.82736e-08
-5.59926e-08
3.02606e-08
-6.41237e-08
3.2053e-08
-7.26301e-08
3.36499e-08
-8.14679e-08
3.50533e-08
-9.05932e-08
3.62671e-08
-9.99629e-08
3.72963e-08
-1.09535e-07
3.81467e-08
-1.19268e-07
3.88246e-08
-1.29123e-07
3.93365e-08
-1.3906e-07
3.96888e-08
-1.49042e-07
3.98875e-08
-1.59033e-07
3.99386e-08
-1.68998e-07
3.98472e-08
-1.78901e-07
3.96184e-08
-1.88712e-07
3.92565e-08
-1.98396e-07
3.87653e-08
-2.07922e-07
3.81482e-08
-2.17259e-07
3.7408e-08
-2.26378e-07
3.65474e-08
-2.35248e-07
3.55683e-08
-2.4384e-07
3.44727e-08
-2.52125e-07
3.32623e-08
-2.60076e-07
3.19384e-08
-2.67664e-07
3.05027e-08
-2.74861e-07
2.89565e-08
-2.81642e-07
2.73015e-08
-2.87979e-07
2.55395e-08
-2.93846e-07
2.36728e-08
-2.9922e-07
2.17037e-08
-3.04075e-07
1.96354e-08
-3.08389e-07
1.74712e-08
-3.1214e-07
1.52154e-08
-3.15306e-07
1.28728e-08
-3.17868e-07
1.04489e-08
-3.19809e-07
7.95005e-09
-3.21112e-07
5.38342e-09
-3.21764e-07
2.75701e-09
-3.21753e-07
7.9662e-11
-3.2107e-07
-2.63887e-09
-3.19708e-07
-5.38798e-09
-3.17663e-07
-8.15623e-09
-3.14934e-07
-1.09314e-08
-3.11524e-07
-1.37004e-08
-3.07437e-07
-1.64495e-08
-3.02684e-07
-1.91644e-08
-2.97275e-07
-2.18303e-08
-2.91228e-07
-2.44317e-08
-2.84563e-07
-2.6953e-08
-2.77302e-07
-2.93785e-08
-2.69474e-07
-3.16921e-08
-2.6111e-07
-3.38781e-08
-2.52243e-07
-3.59208e-08
-2.42914e-07
-3.7805e-08
-2.33163e-07
-3.95161e-08
-2.23036e-07
-4.10402e-08
-2.12581e-07
-4.23641e-08
-2.01849e-07
-4.34758e-08
-1.90894e-07
-4.43645e-08
-1.7977e-07
-4.50207e-08
-1.68536e-07
-4.54364e-08
-1.57252e-07
-4.56053e-08
-1.45976e-07
-4.55226e-08
-1.3477e-07
-4.51857e-08
-1.23694e-07
-4.45936e-08
-1.12809e-07
-4.37478e-08
-1.02175e-07
-4.26514e-08
-9.18497e-08
-4.13102e-08
-8.18891e-08
-3.97321e-08
-7.2347e-08
-3.79273e-08
-6.32738e-08
-3.59084e-08
-5.47163e-08
-3.36909e-08
-4.67166e-08
-3.12925e-08
-3.93119e-08
-2.87342e-08
-3.25337e-08
-2.60399e-08
-2.64068e-08
-2.3237e-08
-2.09488e-08
-2.03568e-08
-1.6169e-08
-1.74348e-08
-1.20678e-08
-1.4512e-08
-8.63562e-09
-1.16355e-08
-5.85191e-09
-8.85959e-09
-3.68414e-09
-6.24746e-09
-2.0868e-09
-3.87298e-09
-1.00031e-09
-1.82285e-09
-3.49755e-10
-1.99225e-10
-4.34703e-11
8.77801e-10
2.88747e-11
1.26682e-09
7.89253e-10
-2.86576e-10
1.99759e-10
-1.19343e-09
1.74879e-09
-2.76279e-09
4.10875e-09
-5.02719e-09
7.0245e-09
-8.00776e-09
1.03015e-08
-1.17138e-08
1.37842e-08
-1.61434e-08
1.735e-08
-2.12846e-08
2.09039e-08
-2.71162e-08
2.43735e-08
-3.361e-08
2.77048e-08
-4.07316e-08
3.08583e-08
-4.84418e-08
3.38062e-08
-5.6698e-08
3.65298e-08
-6.54553e-08
3.90179e-08
-7.4667e-08
4.12646e-08
-8.42856e-08
4.32685e-08
-9.42636e-08
4.50313e-08
-1.04553e-07
4.6557e-08
-1.15108e-07
4.78513e-08
-1.25883e-07
4.89208e-08
-1.36831e-07
4.97729e-08
-1.4791e-07
5.04153e-08
-1.59076e-07
5.08554e-08
-1.70289e-07
5.11006e-08
-1.81509e-07
5.11579e-08
-1.92695e-07
5.10339e-08
-2.03811e-07
5.07343e-08
-2.14819e-07
5.02647e-08
-2.25684e-07
4.96297e-08
-2.36369e-07
4.88335e-08
-2.46841e-07
4.78798e-08
-2.57065e-07
4.67717e-08
-2.67009e-07
4.55121e-08
-2.7664e-07
4.41032e-08
-2.85925e-07
4.25473e-08
-2.94832e-07
4.08463e-08
-3.03332e-07
3.90024e-08
-3.11393e-07
3.70174e-08
-3.18985e-07
3.48937e-08
-3.2608e-07
3.26337e-08
-3.32647e-07
3.02403e-08
-3.3866e-07
2.77169e-08
-3.44092e-07
2.50674e-08
-3.48918e-07
2.22964e-08
-3.53112e-07
1.94094e-08
-3.56651e-07
1.64126e-08
-3.59516e-07
1.33132e-08
-3.61685e-07
1.01194e-08
-3.63142e-07
6.84026e-09
-3.63871e-07
3.48612e-09
-3.6386e-07
6.82646e-11
-3.63098e-07
-3.40089e-09
-3.61578e-07
-6.90786e-09
-3.59296e-07
-1.04381e-08
-3.56251e-07
-1.39761e-08
-3.52446e-07
-1.75053e-08
-3.47887e-07
-2.10085e-08
-3.42584e-07
-2.44674e-08
-3.36551e-07
-2.78632e-08
-3.29806e-07
-3.11767e-08
-3.22371e-07
-3.43881e-08
-3.14272e-07
-3.74773e-08
-3.0554e-07
-4.04245e-08
-2.96209e-07
-4.32096e-08
-2.86316e-07
-4.5813e-08
-2.75906e-07
-4.82155e-08
-2.65023e-07
-5.03988e-08
-2.53718e-07
-5.23453e-08
-2.42044e-07
-5.40385e-08
-2.30056e-07
-5.54633e-08
-2.17815e-07
-5.66062e-08
-2.0538e-07
-5.74552e-08
-1.92816e-07
-5.80002e-08
-1.80188e-07
-5.82334e-08
-1.67562e-07
-5.81488e-08
-1.55004e-07
-5.77432e-08
-1.42583e-07
-5.70155e-08
-1.30363e-07
-5.59674e-08
-1.18411e-07
-5.46033e-08
-1.06791e-07
-5.29303e-08
-9.55646e-08
-5.09586e-08
-8.47907e-08
-4.87012e-08
-7.45248e-08
-4.61743e-08
-6.48182e-08
-4.33974e-08
-5.57176e-08
-4.03931e-08
-4.72639e-08
-3.7188e-08
-3.94917e-08
-3.38121e-08
-3.24287e-08
-3.03e-08
-2.60948e-08
-2.66906e-08
-2.05013e-08
-2.30283e-08
-1.56499e-08
-1.93634e-08
-1.15323e-08
-1.57531e-08
-8.1291e-09
-1.22628e-08
-5.40891e-09
-8.96765e-09
-3.32788e-09
-5.95401e-09
-1.82878e-09
-3.32195e-09
-8.40314e-10
-1.18769e-09
-2.76436e-10
3.13922e-10
-3.56392e-11
1.02602e-09
7.53618e-10
-3.79081e-10
5.78847e-10
-1.53096e-09
2.90067e-09
-3.47172e-09
6.04951e-09
-6.2133e-09
9.76607e-09
-9.76059e-09
1.38488e-08
-1.41103e-08
1.81339e-08
-1.92507e-08
2.24904e-08
-2.5162e-08
2.68151e-08
-3.1817e-08
3.10285e-08
-3.91823e-08
3.50702e-08
-4.72193e-08
3.88954e-08
-5.58852e-08
4.2472e-08
-6.51337e-08
4.57784e-08
-7.49167e-08
4.88009e-08
-8.51842e-08
5.15321e-08
-9.58856e-08
5.397e-08
-1.0697e-07
5.61158e-08
-1.18387e-07
5.79738e-08
-1.30086e-07
5.95502e-08
-1.42017e-07
6.08525e-08
-1.54134e-07
6.18891e-08
-1.66387e-07
6.26687e-08
-1.78732e-07
6.32e-08
-1.91123e-07
6.34916e-08
-2.03516e-07
6.35517e-08
-2.1587e-07
6.33878e-08
-2.28143e-07
6.3007e-08
-2.40294e-07
6.24157e-08
-2.52284e-07
6.16196e-08
-2.64074e-07
6.06237e-08
-2.75627e-07
5.94325e-08
-2.86905e-07
5.80497e-08
-2.97872e-07
5.64789e-08
-3.08492e-07
5.4723e-08
-3.18729e-07
5.27848e-08
-3.2855e-07
5.06669e-08
-3.37919e-07
4.83718e-08
-3.46804e-07
4.59022e-08
-3.55171e-07
4.32611e-08
-3.62989e-07
4.04515e-08
-3.70226e-07
3.74773e-08
-3.76852e-07
3.43428e-08
-3.82837e-07
3.10529e-08
-3.88155e-07
2.76136e-08
-3.92777e-07
2.40317e-08
-3.96679e-07
2.0315e-08
-3.99839e-07
1.64725e-08
-4.02234e-07
1.25144e-08
-4.03845e-07
8.45202e-09
-4.04657e-07
4.29811e-09
-4.04656e-07
6.66542e-11
-4.0383e-07
-4.22702e-09
-4.02171e-07
-8.56629e-09
-3.99676e-07
-1.29333e-08
-3.96343e-07
-1.73089e-08
-3.92176e-07
-2.16728e-08
-3.8718e-07
-2.60038e-08
-3.81368e-07
-3.02796e-08
-3.74754e-07
-3.44771e-08
-3.67358e-07
-3.85728e-08
-3.59204e-07
-4.25424e-08
-3.5032e-07
-4.63615e-08
-3.40739e-07
-5.00055e-08
-3.30498e-07
-5.34502e-08
-3.1964e-07
-5.66715e-08
-3.08209e-07
-5.9646e-08
-2.96257e-07
-6.23511e-08
-2.83837e-07
-6.47655e-08
-2.71006e-07
-6.68691e-08
-2.57826e-07
-6.86433e-08
-2.44361e-07
-7.00716e-08
-2.30676e-07
-7.11395e-08
-2.16842e-07
-7.18346e-08
-2.02928e-07
-7.21472e-08
-1.89007e-07
-7.20704e-08
-1.7515e-07
-7.15999e-08
-1.61431e-07
-7.07346e-08
-1.47921e-07
-6.94768e-08
-1.34693e-07
-6.78317e-08
-1.21815e-07
-6.58083e-08
-1.09354e-07
-6.3419e-08
-9.73757e-08
-6.068e-08
-8.59388e-08
-5.76112e-08
-7.50998e-08
-5.42364e-08
-6.49093e-08
-5.05837e-08
-5.5412e-08
-4.66852e-08
-4.66462e-08
-4.2578e-08
-3.86424e-08
-3.83038e-08
-3.14231e-08
-3.39099e-08
-2.50021e-08
-2.94494e-08
-1.93831e-08
-2.49824e-08
-1.45599e-08
-2.05763e-08
-1.05149e-08
-1.63078e-08
-7.21921e-09
-1.22633e-08
-4.63169e-09
-8.54154e-09
-2.69877e-09
-5.25487e-09
-1.35421e-09
-2.53225e-09
-5.19045e-10
-5.21245e-10
-1.01906e-10
6.08885e-10
6.51717e-10
-4.69232e-10
1.04808e-09
-1.86327e-09
4.29471e-09
-4.17401e-09
8.36023e-09
-7.39322e-09
1.29853e-08
-1.15093e-08
1.79649e-08
-1.65056e-08
2.31302e-08
-2.23595e-08
2.83443e-08
-2.90427e-08
3.34983e-08
-3.65209e-08
3.85068e-08
-4.47551e-08
4.33043e-08
-5.37016e-08
4.78419e-08
-6.33134e-08
5.20839e-08
-7.35408e-08
5.60058e-08
-8.43321e-08
5.95921e-08
-9.5634e-08
6.28341e-08
-1.07393e-07
6.57289e-08
-1.19555e-07
6.82778e-08
-1.32066e-07
7.04851e-08
-1.44874e-07
7.23576e-08
-1.57925e-07
7.39037e-08
-1.71169e-07
7.51327e-08
-1.84554e-07
7.60543e-08
-1.98032e-07
7.66784e-08
-2.11556e-07
7.70149e-08
-2.25077e-07
7.70731e-08
-2.38551e-07
7.68618e-08
-2.51933e-07
7.6389e-08
-2.6518e-07
7.56622e-08
-2.78248e-07
7.4688e-08
-2.91097e-07
7.34724e-08
-3.03685e-07
7.20205e-08
-3.15972e-07
7.0337e-08
-3.27919e-07
6.84259e-08
-3.39487e-07
6.6291e-08
-3.50638e-07
6.39356e-08
-3.61334e-07
6.13629e-08
-3.71538e-07
5.85762e-08
-3.81215e-07
5.55787e-08
-3.90328e-07
5.23742e-08
-3.98843e-07
4.89665e-08
-4.06726e-07
4.53605e-08
-4.13944e-07
4.15614e-08
-4.20467e-07
3.75754e-08
-4.26263e-07
3.34098e-08
-4.31304e-07
2.90729e-08
-4.35563e-07
2.45743e-08
-4.39016e-07
1.99249e-08
-4.41639e-07
1.51371e-08
-4.43411e-07
1.02246e-08
-4.44316e-07
5.20279e-09
-4.44338e-07
8.85323e-11
-4.43465e-07
-5.09972e-09
-4.41689e-07
-1.0342e-08
-4.39006e-07
-1.56168e-08
-4.35414e-07
-2.09011e-08
-4.30916e-07
-2.61708e-08
-4.25519e-07
-3.14002e-08
-4.19236e-07
-3.65628e-08
-4.12082e-07
-4.1631e-08
-4.04079e-07
-4.65763e-08
-3.95251e-07
-5.13701e-08
-3.85629e-07
-5.59829e-08
-3.75249e-07
-6.03856e-08
-3.64151e-07
-6.45489e-08
-3.52378e-07
-6.84442e-08
-3.3998e-07
-7.20435e-08
-3.27012e-07
-7.53199e-08
-3.13529e-07
-7.82478e-08
-2.99595e-07
-8.08031e-08
-2.85275e-07
-8.29638e-08
-2.70637e-07
-8.471e-08
-2.55752e-07
-8.60243e-08
-2.40694e-07
-8.6892e-08
-2.2554e-07
-8.73015e-08
-2.10366e-07
-8.72445e-08
-1.9525e-07
-8.67159e-08
-1.8027e-07
-8.57144e-08
-1.65504e-07
-8.42427e-08
-1.51029e-07
-8.23071e-08
-1.36918e-07
-7.99185e-08
-1.23246e-07
-7.70918e-08
-1.1008e-07
-7.38462e-08
-9.74851e-08
-7.02057e-08
-8.55225e-08
-6.61989e-08
-7.42469e-08
-6.18593e-08
-6.37069e-08
-5.72252e-08
-5.39442e-08
-5.23407e-08
-4.49928e-08
-4.72552e-08
-3.68783e-08
-4.20244e-08
-2.96171e-08
-3.67107e-08
-2.32157e-08
-3.13837e-08
-1.76706e-08
-2.61215e-08
-1.2967e-08
-2.10114e-08
-9.07914e-09
-1.61512e-08
-5.96955e-09
-1.16511e-08
-3.58929e-09
-7.63513e-09
-1.87803e-09
-4.24351e-09
-7.64609e-10
-1.63466e-09
-1.68099e-10
1.2383e-11
4.8362e-10
-5.56539e-10
1.60461e-09
-2.18783e-09
5.92599e-09
-4.86358e-09
1.1036e-08
-8.55638e-09
1.66781e-08
-1.32383e-08
2.26468e-08
-1.8879e-08
2.87709e-08
-2.54446e-08
3.49099e-08
-3.28973e-08
4.0951e-08
-4.11954e-08
4.68048e-08
-5.02932e-08
5.24022e-08
-6.0142e-08
5.76906e-08
-7.069e-08
6.26319e-08
-8.18834e-08
6.71993e-08
-9.36671e-08
7.13757e-08
-1.05985e-07
7.51516e-08
-1.18779e-07
7.85234e-08
-1.31994e-07
8.14924e-08
-1.45572e-07
8.40632e-08
-1.59457e-07
8.62432e-08
-1.73595e-07
8.80417e-08
-1.87931e-07
8.94687e-08
-2.02412e-07
9.05354e-08
-2.16987e-07
9.12527e-08
-2.31603e-07
9.16315e-08
-2.46213e-07
9.16825e-08
-2.60766e-07
9.14155e-08
-2.75217e-07
9.08397e-08
-2.89519e-07
8.99636e-08
-3.03625e-07
8.87948e-08
-3.17493e-07
8.734e-08
-3.31078e-07
8.56054e-08
-3.44337e-07
8.35962e-08
-3.57229e-07
8.13173e-08
-3.69711e-07
7.87731e-08
-3.81743e-07
7.59675e-08
-3.93284e-07
7.29044e-08
-4.04296e-07
6.95878e-08
-4.14739e-07
6.60217e-08
-4.24575e-07
6.22105e-08
-4.33768e-07
5.81591e-08
-4.4228e-07
5.38732e-08
-4.50078e-07
4.93591e-08
-4.57127e-07
4.46245e-08
-4.63395e-07
3.96779e-08
-4.68852e-07
3.45294e-08
-4.73468e-07
2.91903e-08
-4.77217e-07
2.36738e-08
-4.80074e-07
1.79943e-08
-4.82018e-07
1.21683e-08
-4.83029e-07
6.21381e-09
-4.83091e-07
1.50909e-10
-4.82192e-07
-5.99869e-09
-4.80322e-07
-1.22114e-08
-4.77477e-07
-1.8462e-08
-4.73655e-07
-2.47234e-08
-4.68859e-07
-3.09671e-08
-4.63096e-07
-3.71631e-08
-4.56378e-07
-4.32801e-08
-4.48724e-07
-4.92856e-08
-4.40154e-07
-5.51465e-08
-4.30695e-07
-6.08287e-08
-4.2038e-07
-6.6298e-08
-4.09245e-07
-7.152e-08
-3.97334e-07
-7.64604e-08
-3.84693e-07
-8.10856e-08
-3.71373e-07
-8.53627e-08
-3.57433e-07
-8.926e-08
-3.42934e-07
-9.27475e-08
-3.2794e-07
-9.5797e-08
-3.12521e-07
-9.83825e-08
-2.9675e-07
-1.00481e-07
-2.80704e-07
-1.02071e-07
-2.6446e-07
-1.03136e-07
-2.48099e-07
-1.03662e-07
-2.31704e-07
-1.0364e-07
-2.15358e-07
-1.03062e-07
-1.99143e-07
-1.01929e-07
-1.83143e-07
-1.00243e-07
-1.6744e-07
-9.80104e-08
-1.52113e-07
-9.52451e-08
-1.37241e-07
-9.19644e-08
-1.22896e-07
-8.81908e-08
-1.09149e-07
-8.39524e-08
-9.60656e-08
-7.92828e-08
-8.37039e-08
-7.4221e-08
-7.21172e-08
-6.8812e-08
-6.1351e-08
-6.31069e-08
-5.14431e-08
-5.71632e-08
-4.24223e-08
-5.10451e-08
-3.43086e-08
-4.48244e-08
-2.71117e-08
-3.85806e-08
-2.08311e-08
-3.2402e-08
-1.54559e-08
-2.63866e-08
-1.09638e-08
-2.06433e-08
-7.32182e-09
-1.52931e-08
-4.48619e-09
-1.04708e-08
-2.40295e-09
-6.32676e-09
-1.00888e-09
-3.02872e-09
-2.33181e-10
-7.63311e-10
2.50438e-10
-6.40829e-10
2.24544e-09
-2.50332e-09
7.78848e-09
-5.53699e-09
1.40697e-08
-9.69634e-09
2.08374e-08
-1.49376e-08
2.7888e-08
-2.12168e-08
3.50501e-08
-2.84885e-08
4.21817e-08
-3.67053e-08
4.91678e-08
-4.58171e-08
5.59167e-08
-5.57715e-08
6.23566e-08
-6.65139e-08
6.8433e-08
-7.79877e-08
7.41056e-08
-9.01348e-08
7.93464e-08
-1.02896e-07
8.41371e-08
-1.16212e-07
8.84675e-08
-1.30023e-07
9.23339e-08
-1.44268e-07
9.57377e-08
-1.58889e-07
9.86839e-08
-1.73826e-07
1.01181e-07
-1.89023e-07
1.03238e-07
-2.04421e-07
1.04868e-07
-2.19967e-07
1.06081e-07
-2.35604e-07
1.0689e-07
-2.51281e-07
1.07308e-07
-2.66944e-07
1.07346e-07
-2.82543e-07
1.07015e-07
-2.98029e-07
1.06325e-07
-3.13351e-07
1.05286e-07
-3.28463e-07
1.03906e-07
-3.43316e-07
1.02194e-07
-3.57866e-07
1.00155e-07
-3.72067e-07
9.7797e-08
-3.85874e-07
9.51241e-08
-3.99243e-07
9.21419e-08
-4.12131e-07
8.88551e-08
-4.24494e-07
8.52682e-08
-4.36292e-07
8.13858e-08
-4.47483e-07
7.72127e-08
-4.58027e-07
7.27542e-08
-4.67884e-07
6.80161e-08
-4.77016e-07
6.3005e-08
-4.85385e-07
5.77286e-08
-4.92956e-07
5.21958e-08
-4.99695e-07
4.64167e-08
-5.05569e-07
4.0403e-08
-5.10547e-07
3.41681e-08
-5.146e-07
2.77272e-08
-5.17703e-07
2.10972e-08
-5.19832e-07
1.42973e-08
-5.20967e-07
7.34858e-09
-5.2109e-07
2.74119e-10
-5.20188e-07
-6.9008e-09
-5.1825e-07
-1.41489e-08
-5.15272e-07
-2.14407e-08
-5.1125e-07
-2.87452e-08
-5.06188e-07
-3.60291e-08
-5.00093e-07
-4.32578e-08
-4.92978e-07
-5.03951e-08
-4.8486e-07
-5.74035e-08
-4.75762e-07
-6.42444e-08
-4.65712e-07