/*--------------------------------*- C++ -*----------------------------------*\
| =========                 |                                                 |
| \\      /  F ield         | OpenFOAM: The Open Source CFD Toolbox           |
|  \\    /   O peration     | Version:  2512                                  |
|   \\  /    A nd           | Website:  www.openfoam.com                      |
|    \\/     M anipulation  |                                                 |
\*---------------------------------------------------------------------------*/
FoamFile
{
    version     2.0;
    format      ascii;
    arch        "LSB;label=32;scalar=64";
    class       volVectorField;
    location    "0.32";
    object      U;
}
// * * * * * * * * * * * * * * * * * * * * * * * * * * * * * * * * * * * * * //

dimensions      [0 1 -1 0 0 0 0];

internalField   nonuniform List<vector> 
10000
(
(3.1775e-06 -3.16105e-06 0)
(1.33093e-05 -6.4615e-06 0)
(2.68723e-05 -6.4618e-06 0)
(3.69848e-05 -4.57101e-06 0)
(3.99727e-05 -1.84251e-06 0)
(3.43829e-05 1.17387e-06 0)
(1.97158e-05 4.20938e-06 0)
(-4.01541e-06 7.12493e-06 0)
(-3.64971e-05 9.85207e-06 0)
(-7.72306e-05 1.23624e-05 0)
(-0.000125626 1.46451e-05 0)
(-0.000181052 1.66994e-05 0)
(-0.000242852 1.85326e-05 0)
(-0.00031038 2.01545e-05 0)
(-0.000383006 2.15761e-05 0)
(-0.00046012 2.28107e-05 0)
(-0.000541139 2.38699e-05 0)
(-0.000625515 2.47651e-05 0)
(-0.000712728 2.55084e-05 0)
(-0.000802287 2.61119e-05 0)
(-0.000893734 2.65854e-05 0)
(-0.000986638 2.69369e-05 0)
(-0.00108059 2.71749e-05 0)
(-0.00117521 2.73071e-05 0)
(-0.00127015 2.73398e-05 0)
(-0.00136504 2.72781e-05 0)
(-0.00145958 2.71271e-05 0)
(-0.00155345 2.68914e-05 0)
(-0.00164635 2.65738e-05 0)
(-0.00173798 2.61764e-05 0)
(-0.00182808 2.5701e-05 0)
(-0.00191635 2.51493e-05 0)
(-0.00200254 2.45222e-05 0)
(-0.00208636 2.38199e-05 0)
(-0.00216756 2.30423e-05 0)
(-0.00224586 2.21894e-05 0)
(-0.00232101 2.12611e-05 0)
(-0.00239274 2.02571e-05 0)
(-0.00246079 1.91773e-05 0)
(-0.00252489 1.80215e-05 0)
(-0.00258478 1.67902e-05 0)
(-0.0026402 1.54834e-05 0)
(-0.00269091 1.41009e-05 0)
(-0.00273664 1.26443e-05 0)
(-0.00277716 1.1116e-05 0)
(-0.00281223 9.51862e-06 0)
(-0.00284162 7.85504e-06 0)
(-0.00286513 6.12795e-06 0)
(-0.00288254 4.3415e-06 0)
(-0.00289369 2.50151e-06 0)
(-0.0028984 6.13862e-07 0)
(-0.00289655 -1.31505e-06 0)
(-0.002888 -3.27752e-06 0)
(-0.00287268 -5.26523e-06 0)
(-0.00285053 -7.26896e-06 0)
(-0.00282151 -9.27839e-06 0)
(-0.00278565 -1.1283e-05 0)
(-0.00274297 -1.3272e-05 0)
(-0.00269358 -1.52339e-05 0)
(-0.00263759 -1.71564e-05 0)
(-0.00257516 -1.90262e-05 0)
(-0.00250651 -2.08301e-05 0)
(-0.00243189 -2.2555e-05 0)
(-0.00235158 -2.41875e-05 0)
(-0.00226593 -2.57147e-05 0)
(-0.00217533 -2.71235e-05 0)
(-0.00208018 -2.84017e-05 0)
(-0.00198096 -2.95376e-05 0)
(-0.00187816 -3.05193e-05 0)
(-0.00177232 -3.13364e-05 0)
(-0.00166401 -3.19791e-05 0)
(-0.00155382 -3.24391e-05 0)
(-0.00144238 -3.27089e-05 0)
(-0.00133033 -3.27827e-05 0)
(-0.00121833 -3.26559e-05 0)
(-0.00110706 -3.23251e-05 0)
(-0.000997191 -3.17887e-05 0)
(-0.000889411 -3.10467e-05 0)
(-0.000784395 -3.01008e-05 0)
(-0.000682813 -2.89537e-05 0)
(-0.000585321 -2.76099e-05 0)
(-0.000492552 -2.60761e-05 0)
(-0.000405117 -2.43608e-05 0)
(-0.000323591 -2.24734e-05 0)
(-0.000248515 -2.04245e-05 0)
(-0.000180385 -1.82263e-05 0)
(-0.000119647 -1.58934e-05 0)
(-6.66879e-05 -1.34423e-05 0)
(-2.18282e-05 -1.08928e-05 0)
(1.46916e-05 -8.26843e-06 0)
(4.27261e-05 -5.59713e-06 0)
(6.22474e-05 -2.91557e-06 0)
(7.3375e-05 -2.72209e-07 0)
(7.64279e-05 2.25719e-06 0)
(7.20028e-05 4.56027e-06 0)
(6.10917e-05 6.4549e-06 0)
(4.52456e-05 7.64586e-06 0)
(2.6889e-05 7.6424e-06 0)
(1.02361e-05 5.6921e-06 0)
(1.5085e-06 1.51293e-06 0)
(6.45049e-06 -1.33053e-05 0)
(2.34117e-05 -2.33933e-05 0)
(4.15112e-05 -2.05833e-05 0)
(4.91458e-05 -9.87715e-06 0)
(3.93276e-05 5.04793e-06 0)
(8.5466e-06 2.19303e-05 0)
(-4.48533e-05 3.94086e-05 0)
(-0.000121323 5.66585e-05 0)
(-0.000220466 7.3197e-05 0)
(-0.000341347 8.87402e-05 0)
(-0.000482695 0.000103131 0)
(-0.000643034 0.000116295 0)
(-0.000820782 0.000128211 0)
(-0.00101431 0.000138886 0)
(-0.001222 0.000148354 0)
(-0.00144224 0.00015666 0)
(-0.00167349 0.000163857 0)
(-0.00191425 0.000170001 0)
(-0.00216309 0.00017515 0)
(-0.00241867 0.000179364 0)
(-0.00267969 0.000182696 0)
(-0.00294494 0.000185198 0)
(-0.00321326 0.000186919 0)
(-0.00348355 0.000187902 0)
(-0.00375478 0.000188186 0)
(-0.00402596 0.000187805 0)
(-0.00429613 0.000186789 0)
(-0.00456439 0.000185165 0)
(-0.00482986 0.000182952 0)
(-0.00509169 0.000180168 0)
(-0.00534906 0.000176828 0)
(-0.00560115 0.000172941 0)
(-0.00584717 0.000168515 0)
(-0.00608635 0.000163556 0)
(-0.0063179 0.000158067 0)
(-0.00654105 0.000152052 0)
(-0.00675504 0.000145513 0)
(-0.00695913 0.000138449 0)
(-0.00715254 0.000130865 0)
(-0.00733454 0.000122762 0)
(-0.00750439 0.000114147 0)
(-0.00766137 0.000105024 0)
(-0.00780474 9.54012e-05 0)
(-0.00793382 8.52909e-05 0)
(-0.00804794 7.47085e-05 0)
(-0.00814643 6.36726e-05 0)
(-0.00822868 5.22056e-05 0)
(-0.00829412 4.0334e-05 0)
(-0.00834219 2.8089e-05 0)
(-0.00837241 1.55075e-05 0)
(-0.00838436 2.63139e-06 0)
(-0.00837765 -1.04936e-05 0)
(-0.008352 -2.3816e-05 0)
(-0.00830718 -3.72793e-05 0)
(-0.00824306 -5.08221e-05 0)
(-0.00815958 -6.43779e-05 0)
(-0.00805681 -7.78767e-05 0)
(-0.00793488 -9.12451e-05 0)
(-0.00779406 -0.000104406 0)
(-0.00763471 -0.000117278 0)
(-0.00745733 -0.000129779 0)
(-0.0072625 -0.000141824 0)
(-0.00705095 -0.000153327 0)
(-0.00682352 -0.000164205 0)
(-0.00658115 -0.000174371 0)
(-0.00632492 -0.000183744 0)
(-0.00605602 -0.000192243 0)
(-0.00577573 -0.000199793 0)
(-0.00548546 -0.000206321 0)
(-0.00518668 -0.00021176 0)
(-0.00488099 -0.000216051 0)
(-0.00457003 -0.000219139 0)
(-0.00425553 -0.000220979 0)
(-0.00393927 -0.000221534 0)
(-0.00362308 -0.000220775 0)
(-0.00330881 -0.000218684 0)
(-0.00299834 -0.000215253 0)
(-0.00269354 -0.000210484 0)
(-0.00239627 -0.000204389 0)
(-0.00210837 -0.000196992 0)
(-0.00183164 -0.000188328 0)
(-0.00156781 -0.000178442 0)
(-0.00131853 -0.000167392 0)
(-0.00108537 -0.000155248 0)
(-0.000869785 -0.000142089 0)
(-0.000673092 -0.000128011 0)
(-0.000496466 -0.000113123 0)
(-0.000340901 -9.75509e-05 0)
(-0.000207189 -8.14445e-05 0)
(-9.5879e-05 -6.49808e-05 0)
(-7.23567e-06 -4.83742e-05 0)
(5.88281e-05 -3.1893e-05 0)
(0.000102824 -1.58798e-05 0)
(0.000125814 -8.06811e-07 0)
(0.00012957 1.26866e-05 0)
(0.000116781 2.36924e-05 0)
(9.1279e-05 3.09169e-05 0)
(5.83588e-05 3.2526e-05 0)
(2.60614e-05 2.61107e-05 0)
(5.6568e-06 1.02128e-05 0)
(6.46223e-06 -2.68663e-05 0)
(2.06743e-05 -4.15319e-05 0)
(2.96361e-05 -2.95091e-05 0)
(2.03255e-05 -5.58183e-07 0)
(-1.54492e-05 3.83726e-05 0)
(-8.224e-05 8.25227e-05 0)
(-0.000182462 0.000128695 0)
(-0.000316945 0.000174801 0)
(-0.00048537 0.000219486 0)
(-0.000686604 0.000261889 0)
(-0.000918963 0.000301491 0)
(-0.00118042 0.000337994 0)
(-0.00146872 0.000371255 0)
(-0.00178151 0.000401237 0)
(-0.00211637 0.000427973 0)
(-0.00247092 0.000451544 0)
(-0.0028428 0.000472062 0)
(-0.00322973 0.000489654 0)
(-0.00362948 0.00050446 0)
(-0.00403996 0.00051662 0)
(-0.00445914 0.000526273 0)
(-0.0048851 0.000533552 0)
(-0.00531598 0.000538584 0)
(-0.00575005 0.000541482 0)
(-0.00618563 0.000542353 0)
(-0.00662113 0.000541288 0)
(-0.007055 0.00053837 0)
(-0.00748578 0.00053367 0)
(-0.00791204 0.000527246 0)
(-0.0083324 0.00051915 0)
(-0.00874551 0.000509421 0)
(-0.00915005 0.000498092 0)
(-0.00954474 0.000485189 0)
(-0.00992829 0.000470729 0)
(-0.0102995 0.000454728 0)
(-0.010657 0.000437199 0)
(-0.0109997 0.00041815 0)
(-0.0113263 0.000397592 0)
(-0.0116356 0.000375535 0)
(-0.0119265 0.000351992 0)
(-0.0121977 0.000326983 0)
(-0.0124481 0.000300529 0)
(-0.0126766 0.000272659 0)
(-0.012882 0.000243412 0)
(-0.0130633 0.000212836 0)
(-0.0132195 0.000180987 0)
(-0.0133497 0.000147933 0)
(-0.0134528 0.000113754 0)
(-0.0135281 7.85439e-05 0)
(-0.0135749 4.24092e-05 0)
(-0.0135924 5.46998e-06 0)
(-0.0135801 -3.21402e-05 0)
(-0.0135377 -7.02741e-05 0)
(-0.0134646 -0.00010877 0)
(-0.0133609 -0.000147453 0)
(-0.0132263 -0.000186138 0)
(-0.0130611 -0.000224625 0)
(-0.0128655 -0.000262705 0)
(-0.0126399 -0.000300162 0)
(-0.012385 -0.00033677 0)
(-0.0121015 -0.000372296 0)
(-0.0117903 -0.000406504 0)
(-0.0114528 -0.000439157 0)
(-0.01109 -0.000470018 0)
(-0.0107037 -0.000498851 0)
(-0.0102955 -0.000525428 0)
(-0.00986722 -0.000549526 0)
(-0.00942094 -0.000570934 0)
(-0.00895887 -0.000589451 0)
(-0.00848333 -0.000604895 0)
(-0.00799681 -0.000617099 0)
(-0.0075019 -0.000625915 0)
(-0.00700131 -0.000631219 0)
(-0.00649782 -0.000632908 0)
(-0.00599429 -0.000630908 0)
(-0.00549361 -0.00062517 0)
(-0.00499872 -0.000615673 0)
(-0.00451254 -0.000602428 0)
(-0.00403796 -0.000585473 0)
(-0.00357786 -0.000564879 0)
(-0.003135 -0.000540749 0)
(-0.00271208 -0.000513219 0)
(-0.00231167 -0.000482456 0)
(-0.00193617 -0.000448666 0)
(-0.00158782 -0.000412088 0)
(-0.00126862 -0.000373003 0)
(-0.000980341 -0.000331736 0)
(-0.000724471 -0.000288667 0)
(-0.000502151 -0.000244238 0)
(-0.000314138 -0.000198973 0)
(-0.000160729 -0.000153503 0)
(-4.16699e-05 -0.000108601 0)
(4.39337e-05 -6.52348e-05 0)
(9.7785e-05 -2.46496e-05 0)
(0.000122583 1.15284e-05 0)
(0.000122219 4.11478e-05 0)
(0.00010197 6.13833e-05 0)
(6.87228e-05 6.85902e-05 0)
(3.24921e-05 5.83863e-05 0)
(7.58296e-06 2.67865e-05 0)
(4.65012e-06 -3.7101e-05 0)
(1.01663e-05 -4.93178e-05 0)
(9.27751e-07 -2.02492e-05 0)
(-3.52173e-05 3.55119e-05 0)
(-0.000106368 0.000107733 0)
(-0.000217425 0.000189034 0)
(-0.000371068 0.000274206 0)
(-0.000568292 0.000359646 0)
(-0.000808786 0.000442904 0)
(-0.00109127 0.000522352 0)
(-0.0014138 0.000596938 0)
(-0.00177393 0.000666017 0)
(-0.00216894 0.00072924 0)
(-0.00259589 0.00078646 0)
(-0.00305178 0.000837673 0)
(-0.00353355 0.000882976 0)
(-0.00403821 0.00092253 0)
(-0.00456279 0.000956543 0)
(-0.00510442 0.000985243 0)
(-0.00566033 0.00100887 0)
(-0.00622784 0.00102767 0)
(-0.00680441 0.00104187 0)
(-0.00738756 0.00105171 0)
(-0.00797497 0.00105738 0)
(-0.00856437 0.00105909 0)
(-0.0091536 0.001057 0)
(-0.00974058 0.00105127 0)
(-0.0103233 0.00104203 0)
(-0.0108999 0.0010294 0)
(-0.0114683 0.00101347 0)
(-0.0120269 0.000994314 0)
(-0.0125737 0.000972009 0)
(-0.0131071 0.000946601 0)
(-0.0136253 0.000918133 0)
(-0.0141265 0.000886639 0)
(-0.0146092 0.000852147 0)
(-0.0150715 0.000814683 0)
(-0.015512 0.00077427 0)
(-0.0159289 0.000730938 0)
(-0.0163207 0.000684719 0)
(-0.0166857 0.000635655 0)
(-0.0170225 0.000583796 0)
(-0.0173295 0.000529207 0)
(-0.0176052 0.000471969 0)
(-0.0178483 0.000412177 0)
(-0.0180574 0.00034995 0)
(-0.0182312 0.000285423 0)
(-0.0183686 0.000218758 0)
(-0.0184684 0.00015014 0)
(-0.0185297 7.97786e-05 0)
(-0.0185516 7.90808e-06 0)
(-0.0185335 -6.52097e-05 0)
(-0.0184747 -0.000139288 0)
(-0.0183749 -0.000214015 0)
(-0.0182338 -0.000289053 0)
(-0.0180515 -0.000364042 0)
(-0.0178281 -0.0004386 0)
(-0.0175639 -0.000512328 0)
(-0.0172597 -0.000584807 0)
(-0.0169161 -0.000655606 0)
(-0.0165344 -0.000724281 0)
(-0.0161158 -0.000790383 0)
(-0.0156618 -0.000853459 0)
(-0.0151743 -0.000913057 0)
(-0.0146552 -0.000968732 0)
(-0.0141069 -0.00102005 0)
(-0.0135319 -0.00106658 0)
(-0.0129327 -0.00110793 0)
(-0.0123124 -0.00114372 0)
(-0.0116741 -0.0011736 0)
(-0.011021 -0.00119725 0)
(-0.0103567 -0.00121441 0)
(-0.00968452 -0.00122483 0)
(-0.00900832 -0.00122833 0)
(-0.00833182 -0.00122476 0)
(-0.00765885 -0.00121403 0)
(-0.00699326 -0.00119612 0)
(-0.00633889 -0.00117104 0)
(-0.00569958 -0.00113888 0)
(-0.00507907 -0.00109977 0)
(-0.00448102 -0.00105393 0)
(-0.00390894 -0.00100162 0)
(-0.0033662 -0.000943167 0)
(-0.00285593 -0.000878985 0)
(-0.00238103 -0.000809546 0)
(-0.00194409 -0.000735405 0)
(-0.00154739 -0.000657209 0)
(-0.00119281 -0.000575706 0)
(-0.000881768 -0.000491766 0)
(-0.000615178 -0.000406415 0)
(-0.00039335 -0.000320868 0)
(-0.00021589 -0.000236595 0)
(-8.15915e-05 -0.000155402 0)
(1.17223e-05 -7.95193e-05 0)
(6.73706e-05 -1.17755e-05 0)
(9.00162e-05 4.42499e-05 0)
(8.57986e-05 8.40429e-05 0)
(6.25119e-05 0.000102017 0)
(3.12064e-05 9.15404e-05 0)
(7.61329e-06 4.51102e-05 0)
(1.99803e-06 -4.03215e-05 0)
(-4.66509e-06 -3.96787e-05 0)
(-3.81139e-05 1.55659e-05 0)
(-0.000107956 0.000106746 0)
(-0.000221296 0.000220642 0)
(-0.000382808 0.000347453 0)
(-0.000595061 0.000480003 0)
(-0.000858945 0.000613151 0)
(-0.00117403 0.00074328 0)
(-0.00153887 0.000867884 0)
(-0.00195126 0.000985282 0)
(-0.00240846 0.0010944 0)
(-0.00290733 0.0011946 0)
(-0.00344453 0.00128557 0)
(-0.00401653 0.00136723 0)
(-0.00461979 0.00143965 0)
(-0.00525073 0.00150304 0)
(-0.00590584 0.00155767 0)
(-0.00658168 0.00160385 0)
(-0.00727491 0.00164194 0)
(-0.00798229 0.00167228 0)
(-0.0087007 0.00169523 0)
(-0.00942713 0.00171112 0)
(-0.0101587 0.00172027 0)
(-0.0108926 0.00172296 0)
(-0.0116262 0.00171948 0)
(-0.0123569 0.00171006 0)
(-0.0130822 0.0016949 0)
(-0.0137997 0.00167418 0)
(-0.014507 0.00164806 0)
(-0.0152018 0.00161668 0)
(-0.0158819 0.00158013 0)
(-0.0165451 0.0015385 0)
(-0.0171891 0.00149187 0)
(-0.017812 0.0014403 0)
(-0.0184115 0.00138384 0)
(-0.0189856 0.00132254 0)
(-0.0195323 0.00125644 0)
(-0.0200495 0.00118562 0)
(-0.0205352 0.00111011 0)
(-0.0209876 0.00103001 0)
(-0.0214046 0.000945407 0)
(-0.0217844 0.000856407 0)
(-0.0221253 0.000763152 0)
(-0.0224256 0.000665807 0)
(-0.0226835 0.000564568 0)
(-0.0228975 0.000459665 0)
(-0.0230663 0.000351363 0)
(-0.0231884 0.000239967 0)
(-0.0232628 0.00012582 0)
(-0.0232884 9.30393e-06 0)
(-0.0232644 -0.000109156 0)
(-0.0231901 -0.000229096 0)
(-0.023065 -0.000350012 0)
(-0.022889 -0.00047136 0)
(-0.0226621 -0.000592563 0)
(-0.0223844 -0.000713007 0)
(-0.0220565 -0.000832053 0)
(-0.0216791 -0.00094903 0)
(-0.0212534 -0.00106325 0)
(-0.0207806 -0.00117401 0)
(-0.0202624 -0.00128058 0)
(-0.0197006 -0.00138226 0)
(-0.0190976 -0.00147831 0)
(-0.0184557 -0.00156804 0)
(-0.0177778 -0.00165074 0)
(-0.0170669 -0.00172576 0)
(-0.0163263 -0.00179245 0)
(-0.0155596 -0.00185022 0)
(-0.0147706 -0.00189852 0)
(-0.0139633 -0.00193684 0)
(-0.0131419 -0.00196475 0)
(-0.0123107 -0.00198189 0)
(-0.0114742 -0.00198795 0)
(-0.0106369 -0.00198272 0)
(-0.00980362 -0.00196605 0)
(-0.00897891 -0.00193791 0)
(-0.00816749 -0.00189833 0)
(-0.00737397 -0.00184746 0)
(-0.00660291 -0.00178553 0)
(-0.00585873 -0.00171287 0)
(-0.00514569 -0.00162993 0)
(-0.00446783 -0.00153725 0)
(-0.00382892 -0.00143549 0)
(-0.00323245 -0.00132543 0)
(-0.00268153 -0.00120799 0)
(-0.00217884 -0.00108422 0)
(-0.00172663 -0.000955327 0)
(-0.00132655 -0.000822731 0)
(-0.000979651 -0.000688075 0)
(-0.000686276 -0.00055329 0)
(-0.000445944 -0.000420675 0)
(-0.000257244 -0.000292989 0)
(-0.0001177 -0.000173584 0)
(-2.36142e-05 -6.65684e-05 0)
(3.01051e-05 2.3001e-05 0)
(5.00521e-05 8.89013e-05 0)
(4.4496e-05 0.000123585 0)
(2.478e-05 0.000118055 0)
(6.53661e-06 6.11805e-05 0)
(-9.91215e-07 -3.4997e-05 0)
(-2.17082e-05 -8.86624e-06 0)
(-8.30774e-05 8.29338e-05 0)
(-0.000191162 0.00021865 0)
(-0.000351394 0.000382591 0)
(-0.000567828 0.000562821 0)
(-0.000842578 0.000750374 0)
(-0.00117618 0.000938653 0)
(-0.00156793 0.00112287 0)
(-0.00201614 0.00129964 0)
(-0.00251834 0.00146658 0)
(-0.00307148 0.00162215 0)
(-0.00367211 0.00176537 0)
(-0.00431649 0.00189571 0)
(-0.00500069 0.00201298 0)
(-0.00572073 0.00211722 0)
(-0.00647259 0.00220863 0)
(-0.00725227 0.00228754 0)
(-0.00805584 0.00235435 0)
(-0.00887947 0.00240951 0)
(-0.00971942 0.00245349 0)
(-0.0105721 0.00248674 0)
(-0.011434 0.00250974 0)
(-0.0123017 0.0025229 0)
(-0.013172 0.00252665 0)
(-0.0140417 0.00252133 0)
(-0.0149078 0.00250729 0)
(-0.0157674 0.00248483 0)
(-0.0166175 0.00245419 0)
(-0.0174554 0.0024156 0)
(-0.0182784 0.00236925 0)
(-0.0190837 0.0023153 0)
(-0.0198688 0.00225387 0)
(-0.0206311 0.00218509 0)
(-0.0213681 0.00210904 0)
(-0.0220773 0.00202581 0)
(-0.0227561 0.00193549 0)
(-0.0234023 0.00183816 0)
(-0.0240134 0.0017339 0)
(-0.0245871 0.00162282 0)
(-0.0251211 0.00150504 0)
(-0.0256132 0.00138071 0)
(-0.0260611 0.00125 0)
(-0.0264628 0.00111312 0)
(-0.0268164 0.000970337 0)
(-0.0271198 0.00082193 0)
(-0.0273713 0.000668248 0)
(-0.0275693 0.000509686 0)
(-0.0277122 0.000346694 0)
(-0.0277987 0.000179775 0)
(-0.0278276 9.49334e-06 0)
(-0.027798 -0.000163532 0)
(-0.0277092 -0.000338625 0)
(-0.0275606 -0.000515049 0)
(-0.027352 -0.000692018 0)
(-0.0270835 -0.000868693 0)
(-0.0267553 -0.00104419 0)
(-0.0263681 -0.00121758 0)
(-0.0259229 -0.00138789 0)
(-0.0254207 -0.00155415 0)
(-0.0248633 -0.00171532 0)
(-0.0242526 -0.00187037 0)
(-0.0235907 -0.00201828 0)
(-0.0228803 -0.00215801 0)
(-0.0221243 -0.00228854 0)
(-0.021326 -0.00240888 0)
(-0.0204888 -0.00251807 0)
(-0.0196167 -0.0026152 0)
(-0.0187139 -0.00269942 0)
(-0.0177846 -0.00276994 0)
(-0.0168336 -0.00282604 0)
(-0.0158657 -0.0028671 0)
(-0.014886 -0.00289261 0)
(-0.0138997 -0.00290212 0)
(-0.012912 -0.00289535 0)
(-0.0119284 -0.00287209 0)
(-0.0109542 -0.0028323 0)
(-0.00999498 -0.00277603 0)
(-0.00905598 -0.00270349 0)
(-0.00814247 -0.00261505 0)
(-0.00725958 -0.00251119 0)
(-0.00641221 -0.00239256 0)
(-0.00560502 -0.00225998 0)
(-0.00484236 -0.0021144 0)
(-0.00412822 -0.00195698 0)
(-0.00346617 -0.00178904 0)
(-0.00285929 -0.00161213 0)
(-0.00231012 -0.00142802 0)
(-0.00182055 -0.00123876 0)
(-0.00139179 -0.0010467 0)
(-0.00102424 -0.000854578 0)
(-0.000717391 -0.000665623 0)
(-0.000469753 -0.00048363 0)
(-0.000278704 -0.000313125 0)
(-0.000140372 -0.000159535 0)
(-4.94958e-05 -2.93985e-05 0)
(6.75382e-07 6.93928e-05 0)
(1.85451e-05 0.000127387 0)
(1.5147e-05 0.000133314 0)
(4.86541e-06 7.28571e-05 0)
(-4.05902e-06 -2.04633e-05 0)
(-3.971e-05 4.52204e-05 0)
(-0.000131078 0.000184937 0)
(-0.000280165 0.00037484 0)
(-0.000490347 0.000597308 0)
(-0.000764733 0.000838646 0)
(-0.00110471 0.00108835 0)
(-0.00151026 0.0013385 0)
(-0.00198025 0.00158322 0)
(-0.00251263 0.00181826 0)
(-0.00310462 0.00204059 0)
(-0.00375287 0.00224812 0)
(-0.00445358 0.00243954 0)
(-0.00520268 0.00261408 0)
(-0.00599591 0.0027714 0)
(-0.00682889 0.00291146 0)
(-0.0076972 0.00303448 0)
(-0.00859643 0.00314082 0)
(-0.00952225 0.00323095 0)
(-0.0104704 0.00330541 0)
(-0.0114366 0.00336478 0)
(-0.012417 0.00340965 0)
(-0.0134075 0.00344059 0)
(-0.0144044 0.00345815 0)
(-0.015404 0.00346287 0)
(-0.0164026 0.00345521 0)
(-0.0173969 0.00343561 0)
(-0.0183834 0.00340445 0)
(-0.0193589 0.00336208 0)
(-0.0203202 0.0033088 0)
(-0.0212641 0.00324485 0)
(-0.0221877 0.00317046 0)
(-0.0230879 0.00308581 0)
(-0.0239617 0.00299105 0)
(-0.0248063 0.00288633 0)
(-0.0256188 0.00277178 0)
(-0.0263964 0.00264751 0)
(-0.0271363 0.00251365 0)
(-0.0278359 0.00237033 0)
(-0.0284924 0.00221772 0)
(-0.0291033 0.00205598 0)
(-0.029666 0.00188533 0)
(-0.030178 0.00170603 0)
(-0.030637 0.00151838 0)
(-0.0310408 0.00132272 0)
(-0.0313871 0.00111948 0)
(-0.0316739 0.000909123 0)
(-0.0318995 0.000692209 0)
(-0.0320621 0.000469353 0)
(-0.0321602 0.000241247 0)
(-0.0321925 8.66195e-06 0)
(-0.032158 -0.000227556 0)
(-0.0320559 -0.000466484 0)
(-0.0318856 -0.000707124 0)
(-0.0316469 -0.000948409 0)
(-0.0313398 -0.0011892 0)
(-0.0309648 -0.0014283 0)
(-0.0305225 -0.00166446 0)
(-0.0300141 -0.00189637 0)
(-0.0294408 -0.0021227 0)
(-0.0288047 -0.00234207 0)
(-0.0281077 -0.0025531 0)
(-0.0273526 -0.00275439 0)
(-0.0265421 -0.00294457 0)
(-0.0256797 -0.00312225 0)
(-0.0247689 -0.00328611 0)
(-0.0238138 -0.00343486 0)
(-0.0228188 -0.00356728 0)
(-0.0217884 -0.00368223 0)
(-0.0207278 -0.00377865 0)
(-0.019642 -0.00385558 0)
(-0.0185367 -0.0039122 0)
(-0.0174174 -0.00394781 0)
(-0.0162899 -0.00396183 0)
(-0.0151604 -0.00395387 0)
(-0.0140348 -0.00392367 0)
(-0.0129192 -0.00387116 0)
(-0.0118197 -0.00379646 0)
(-0.0107423 -0.00369984 0)
(-0.00969287 -0.0035818 0)
(-0.0086772 -0.00344301 0)
(-0.00770076 -0.00328438 0)
(-0.00676879 -0.003107 0)
(-0.00588614 -0.0029122 0)
(-0.00505729 -0.00270154 0)
(-0.00428621 -0.00247684 0)
(-0.00357636 -0.0022402 0)
(-0.00293058 -0.001994 0)
(-0.00235099 -0.001741 0)
(-0.00183897 -0.00148435 0)
(-0.00139503 -0.00122766 0)
(-0.00101873 -0.000975132 0)
(-0.000708595 -0.000731654 0)
(-0.000461986 -0.000502947 0)
(-0.000275031 -0.000295753 0)
(-0.000142504 -0.000118055 0)
(-5.77301e-05 2.06677e-05 0)
(-1.24433e-05 0.000109194 0)
(3.63385e-06 0.00013423 0)
(2.90209e-06 7.89073e-05 0)
(-7.08183e-06 3.48993e-06 0)
(-5.79485e-05 0.00012359 0)
(-0.000180274 0.000323306 0)
(-0.000371847 0.000577493 0)
(-0.000633764 0.000867147 0)
(-0.00096797 0.00117721 0)
(-0.00137493 0.00149591 0)
(-0.00185389 0.00181421 0)
(-0.00240316 0.00212527 0)
(-0.00302022 0.00242404 0)
(-0.00370191 0.00270685 0)
(-0.00444452 0.00297114 0)
(-0.00524393 0.00321522 0)
(-0.00609576 0.00343808 0)
(-0.00699538 0.00363922 0)
(-0.00793808 0.00381853 0)
(-0.0089191 0.0039762 0)
(-0.00993367 0.00411261 0)
(-0.0109771 0.00422831 0)
(-0.0120447 0.00432393 0)
(-0.0131319 0.00440014 0)
(-0.0142343 0.00445766 0)
(-0.0153476 0.00449717 0)
(-0.0164676 0.00451935 0)
(-0.0175902 0.00452485 0)
(-0.0187115 0.00451425 0)
(-0.0198276 0.00448809 0)
(-0.0209347 0.00444686 0)
(-0.0220292 0.00439099 0)
(-0.0231076 0.00432085 0)
(-0.0241663 0.00423677 0)
(-0.0252019 0.00413903 0)
(-0.0262111 0.00402787 0)
(-0.0271907 0.00390352 0)
(-0.0281372 0.00376614 0)
(-0.0290477 0.00361593 0)
(-0.0299188 0.00345305 0)
(-0.0307476 0.00327767 0)
(-0.031531 0.00308999 0)
(-0.032266 0.00289022 0)
(-0.0329498 0.00267861 0)
(-0.0335795 0.00245545 0)
(-0.0341525 0.00222108 0)
(-0.034666 0.00197591 0)
(-0.0351175 0.00172041 0)
(-0.0355047 0.00145513 0)
(-0.0358255 0.00118071 0)
(-0.0360776 0.000897856 0)
(-0.0362593 0.000607391 0)
(-0.036369 0.000310218 0)
(-0.0364051 7.33845e-06 0)
(-0.0363667 -0.000300145 0)
(-0.0362527 -0.000611035 0)
(-0.0360627 -0.000924039 0)
(-0.0357964 -0.00123778 0)
(-0.0354538 -0.00155078 0)
(-0.0350354 -0.0018615 0)
(-0.034542 -0.00216832 0)
(-0.0339748 -0.00246957 0)
(-0.0333354 -0.00276352 0)
(-0.0326258 -0.00304842 0)
(-0.0318484 -0.00332247 0)
(-0.031006 -0.0035839 0)
(-0.0301019 -0.00383091 0)
(-0.0291397 -0.00406177 0)
(-0.0281235 -0.00427475 0)
(-0.0270576 -0.00446822 0)
(-0.0259469 -0.0046406 0)
(-0.0247966 -0.00479044 0)
(-0.0236121 -0.00491636 0)
(-0.0223991 -0.00501717 0)
(-0.0211638 -0.0050918 0)
(-0.0199122 -0.00513934 0)
(-0.018651 -0.00515909 0)
(-0.0173866 -0.00515052 0)
(-0.0161258 -0.00511333 0)
(-0.0148752 -0.00504744 0)
(-0.0136414 -0.00495297 0)
(-0.0124312 -0.00483033 0)
(-0.0112511 -0.00468015 0)
(-0.0101073 -0.00450331 0)
(-0.0090058 -0.00430099 0)
(-0.00795248 -0.00407462 0)
(-0.00695263 -0.00382592 0)
(-0.00601118 -0.00355692 0)
(-0.00513252 -0.00326997 0)
(-0.00432044 -0.00296778 0)
(-0.00357808 -0.00265341 0)
(-0.00290785 -0.00233037 0)
(-0.00231131 -0.00200265 0)
(-0.00178914 -0.00167481 0)
(-0.00134103 -0.00135205 0)
(-0.000965619 -0.00104037 0)
(-0.000660378 -0.000746671 0)
(-0.000421571 -0.000478992 0)
(-0.000244166 -0.000246688 0)
(-0.000121745 -6.07125e-05 0)
(-4.63891e-05 6.61348e-05 0)
(-8.87101e-06 0.000118855 0)
(8.25849e-07 7.86604e-05 0)
(-1.00055e-05 3.6797e-05 0)
(-7.60104e-05 0.000226542 0)
(-0.000229527 0.000498778 0)
(-0.00046416 0.000827702 0)
(-0.000778642 0.00119341 0)
(-0.00117363 0.00157985 0)
(-0.00164853 0.00197427 0)
(-0.00220171 0.00236673 0)
(-0.00283079 0.00274957 0)
(-0.00353271 0.00311704 0)
(-0.00430385 0.00346491 0)
(-0.00514011 0.00379018 0)
(-0.006037 0.00409081 0)
(-0.00698981 0.00436556 0)
(-0.00799359 0.00461375 0)
(-0.0090433 0.00483522 0)
(-0.0101339 0.0050301 0)
(-0.0112602 0.00519882 0)
(-0.0124172 0.00534197 0)
(-0.0136 0.00546025 0)
(-0.0148036 0.00555447 0)
(-0.0160232 0.00562542 0)
(-0.0172542 0.00567393 0)
(-0.0184921 0.00570079 0)
(-0.0197324 0.00570676 0)
(-0.0209709 0.00569255 0)
(-0.0222032 0.0056588 0)
(-0.0234254 0.00560611 0)
(-0.0246334 0.00553498 0)
(-0.0258234 0.00544589 0)
(-0.0269915 0.00533923 0)
(-0.0281339 0.00521536 0)
(-0.0292471 0.00507458 0)
(-0.0303273 0.00491716 0)
(-0.031371 0.00474335 0)
(-0.0323748 0.00455338 0)
(-0.0333351 0.00434747 0)
(-0.0342487 0.00412586 0)
(-0.0351121 0.0038888 0)
(-0.0359221 0.00363657 0)
(-0.0366756 0.00336951 0)
(-0.0373695 0.00308799 0)
(-0.0380008 0.00279245 0)
(-0.0385666 0.00248343 0)
(-0.0390642 0.00216153 0)
(-0.0394911 0.00182746 0)
(-0.0398447 0.001482 0)
(-0.0401229 0.00112609 0)
(-0.0403237 0.000760732 0)
(-0.0404453 0.000387079 0)
(-0.0404861 6.39106e-06 0)
(-0.0404449 -0.000379953 0)
(-0.0403209 -0.000770452 0)
(-0.0401133 -0.00116349 0)
(-0.0398218 -0.00155735 0)
(-0.0394467 -0.00195019 0)
(-0.0389883 -0.0023401 0)
(-0.0384476 -0.00272505 0)
(-0.0378259 -0.00310297 0)
(-0.0371249 -0.0034717 0)
(-0.0363467 -0.00382908 0)
(-0.035494 -0.00417288 0)
(-0.0345699 -0.00450088 0)
(-0.0335778 -0.00481088 0)
(-0.0325217 -0.0051007 0)
(-0.0314061 -0.00536822 0)
(-0.0302357 -0.00561141 0)
(-0.0290156 -0.00582832 0)
(-0.0277516 -0.00601713 0)
(-0.0264495 -0.00617617 0)
(-0.0251156 -0.00630394 0)
(-0.0237565 -0.00639911 0)
(-0.0223788 -0.00646058 0)
(-0.0209896 -0.00648747 0)
(-0.019596 -0.00647913 0)
(-0.0182053 -0.00643519 0)
(-0.0168247 -0.00635555 0)
(-0.0154615 -0.0062404 0)
(-0.0141229 -0.00609023 0)
(-0.0128158 -0.00590583 0)
(-0.0115473 -0.00568833 0)
(-0.0103238 -0.00543918 0)
(-0.00915152 -0.00516019 0)
(-0.00803639 -0.00485351 0)
(-0.00698372 -0.00452168 0)
(-0.0059983 -0.0041676 0)
(-0.00508428 -0.00379465 0)
(-0.00424513 -0.0034066 0)
(-0.00348352 -0.00300779 0)
(-0.00280128 -0.00260306 0)
(-0.00219931 -0.00219793 0)
(-0.00167749 -0.00179865 0)
(-0.00123465 -0.0014123 0)
(-0.000868487 -0.00104698 0)
(-0.000575502 -0.000711948 0)
(-0.000350985 -0.000417863 0)
(-0.00018891 -0.000177011 0)
(-8.18495e-05 -3.56399e-06 0)
(-2.17897e-05 8.60974e-05 0)
(-1.26036e-06 7.18194e-05 0)
(-1.28067e-05 7.92587e-05 0)
(-9.36739e-05 0.000353924 0)
(-0.000278149 0.000711426 0)
(-0.000555788 0.00112579 0)
(-0.000922975 0.00157659 0)
(-0.00137902 0.00204715 0)
(-0.00192217 0.00252399 0)
(-0.00254982 0.00299646 0)
(-0.00325881 0.00345628 0)
(-0.00404546 0.00389712 0)
(-0.00490563 0.00431426 0)
(-0.00583476 0.00470431 0)
(-0.00682799 0.00506494 0)
(-0.00788023 0.00539468 0)
(-0.00898623 0.00569273 0)
(-0.0101406 0.00595883 0)
(-0.011338 0.0061931 0)
(-0.012573 0.00639597 0)
(-0.0138403 0.00656811 0)
(-0.0151345 0.00671029 0)
(-0.0164505 0.00682339 0)
(-0.0177832 0.00690836 0)
(-0.0191276 0.00696611 0)
(-0.0204789 0.00699757 0)
(-0.0218323 0.0070036 0)
(-0.0231832 0.00698504 0)
(-0.0245271 0.00694264 0)
(-0.0258596 0.00687708 0)
(-0.0271764 0.00678899 0)
(-0.0284733 0.0066789 0)
(-0.0297461 0.00654731 0)
(-0.0309908 0.00639463 0)
(-0.0322035 0.00622125 0)
(-0.0333802 0.00602749 0)
(-0.0345171 0.00581366 0)
(-0.0356104 0.00558004 0)
(-0.0366563 0.00532694 0)
(-0.0376513 0.00505464 0)
(-0.0385916 0.00476347 0)
(-0.0394739 0.00445379 0)
(-0.0402946 0.00412602 0)
(-0.0410505 0.00378063 0)
(-0.0417383 0.00341819 0)
(-0.042355 0.00303935 0)
(-0.0428975 0.00264487 0)
(-0.0433632 0.00223562 0)
(-0.0437494 0.00181257 0)
(-0.0440537 0.00137687 0)
(-0.0442739 0.00092975 0)
(-0.0444082 0.000472623 0)
(-0.0444549 7.02439e-06 0)
(-0.0444126 -0.000465363 0)
(-0.0442803 -0.000942714 0)
(-0.0440574 -0.00142307 0)
(-0.0437436 -0.00190432 0)
(-0.043339 -0.00238426 0)
(-0.042844 -0.00286055 0)
(-0.0422597 -0.00333076 0)
(-0.0415874 -0.00379235 0)
(-0.0408289 -0.00424274 0)
(-0.0399867 -0.00467928 0)
(-0.0390634 -0.0050993 0)
(-0.0380624 -0.00550011 0)
(-0.0369874 -0.00587904 0)
(-0.0358427 -0.00623347 0)
(-0.0346329 -0.00656084 0)
(-0.0333631 -0.00685869 0)
(-0.0320391 -0.00712466 0)
(-0.0306667 -0.00735656 0)
(-0.0292523 -0.00755237 0)
(-0.0278026 -0.00771026 0)
(-0.0263247 -0.00782866 0)
(-0.0248257 -0.00790622 0)
(-0.0233132 -0.00794186 0)
(-0.0217948 -0.00793483 0)
(-0.0202784 -0.00788468 0)
(-0.0187716 -0.00779128 0)
(-0.0172824 -0.00765486 0)
(-0.0158185 -0.00747603 0)
(-0.0143874 -0.00725576 0)
(-0.0129964 -0.00699541 0)
(-0.0116528 -0.00669676 0)
(-0.0103632 -0.006362 0)
(-0.00913393 -0.00599373 0)
(-0.00797073 -0.00559503 0)
(-0.00687882 -0.00516943 0)
(-0.00586273 -0.00472095 0)
(-0.00492628 -0.00425417 0)
(-0.00407246 -0.00377422 0)
(-0.00330337 -0.00328687 0)
(-0.0026202 -0.0027986 0)
(-0.0020231 -0.0023167 0)
(-0.00151117 -0.00184935 0)
(-0.00108238 -0.0014058 0)
(-0.00073358 -0.000996487 0)
(-0.000460472 -0.000633258 0)
(-0.000257515 -0.000329607 0)
(-0.000117856 -0.000100876 0)
(-3.47581e-05 3.54628e-05 0)
(-3.29995e-06 5.83207e-05 0)
(-1.54817e-05 0.000130605 0)
(-0.000110828 0.000505313 0)
(-0.000325738 0.000960896 0)
(-0.000645917 0.00147152 0)
(-0.00106546 0.00201661 0)
(-0.00158232 0.0025791 0)
(-0.00219352 0.00314506 0)
(-0.00289544 0.00370336 0)
(-0.00368408 0.00424522 0)
(-0.00455506 0.00476387 0)
(-0.00550364 0.00525422 0)
(-0.0065248 0.00571256 0)
(-0.00761324 0.0061363 0)
(-0.00876349 0.00652381 0)
(-0.00996996 0.00687416 0)
(-0.011227 0.00718702 0)
(-0.0125289 0.00746251 0)
(-0.0138699 0.0077011 0)
(-0.0152445 0.00790347 0)
(-0.016647 0.0080705 0)
(-0.0180721 0.00820318 0)
(-0.0195142 0.00830254 0)
(-0.0209683 0.00836962 0)
(-0.0224291 0.00840547 0)
(-0.0238916 0.00841107 0)
(-0.0253509 0.00838736 0)
(-0.0268023 0.00833521 0)
(-0.0282411 0.00825541 0)
(-0.0296626 0.00814866 0)
(-0.0310624 0.00801562 0)
(-0.0324361 0.00785683 0)
(-0.0337794 0.00767281 0)
(-0.035088 0.00746398 0)
(-0.0363577 0.00723076 0)
(-0.0375844 0.00697351 0)
(-0.0387641 0.00669259 0)
(-0.0398927 0.00638835 0)
(-0.0409664 0.00606116 0)
(-0.0419813 0.00571142 0)
(-0.0429337 0.00533958 0)
(-0.0438198 0.00494615 0)
(-0.0446362 0.00453171 0)
(-0.0453794 0.00409696 0)
(-0.046046 0.00364267 0)
(-0.046633 0.00316978 0)
(-0.0471373 0.00267932 0)
(-0.0475562 0.00217249 0)
(-0.0478871 0.00165064 0)
(-0.0481276 0.00111526 0)
(-0.0482758 0.000568024 0)
(-0.0483298 1.07742e-05 0)
(-0.0482883 -0.000554486 0)
(-0.04815 -0.00112558 0)
(-0.0479144 -0.00170018 0)
(-0.047581 -0.0022758 0)
(-0.0471499 -0.00284978 0)
(-0.0466217 -0.00341938 0)
(-0.0459973 -0.00398169 0)
(-0.0452782 -0.00453373 0)
(-0.0444664 -0.00507241 0)
(-0.0435642 -0.00559461 0)
(-0.0425747 -0.00609716 0)