/*--------------------------------*- C++ -*----------------------------------*\
| =========                 |                                                 |
| \\      /  F ield         | OpenFOAM: The Open Source CFD Toolbox           |
|  \\    /   O peration     | Version:  2512                                  |
|   \\  /    A nd           | Website:  www.openfoam.com                      |
|    \\/     M anipulation  |                                                 |
\*---------------------------------------------------------------------------*/
FoamFile
{
    version     2.0;
    format      ascii;
    arch        "LSB;label=32;scalar=64";
    class       volScalarField;
    location    "0.36";
    object      p;
}
// * * * * * * * * * * * * * * * * * * * * * * * * * * * * * * * * * * * * * //

dimensions      [0 2 -2 0 0 0 0];

internalField   nonuniform List<scalar> 
10000
(
1.39854e-08
2.71761e-06
-2.48488e-05
-8.35186e-05
-0.000166981
-0.000269029
-0.000384042
-0.000507011
-0.000633646
-0.000760348
-0.00088413
-0.00100253
-0.00111354
-0.0012155
-0.0013071
-0.00138728
-0.0014552
-0.00151021
-0.00155184
-0.00157971
-0.00159358
-0.00159326
-0.00157864
-0.00154967
-0.00150633
-0.00144865
-0.00137669
-0.00129053
-0.00119027
-0.00107603
-0.000947956
-0.000806202
-0.000650956
-0.000482419
-0.000300811
-0.000106388
0.000100561
0.000319704
0.000550662
0.000793021
0.00104632
0.00131007
0.00158369
0.00186653
0.00215788
0.002457
0.00276307
0.0030752
0.00339243
0.00371371
0.00403797
0.00436406
0.00469078
0.00501687
0.00534101
0.00566184
0.00597802
0.00628812
0.00659074
0.00688445
0.00716782
0.00743949
0.0076981
0.00794238
0.00817109
0.00838306
0.0085772
0.00875255
0.00890825
0.0090436
0.00915802
0.0092511
0.00932254
0.00937225
0.00940029
0.00940691
0.00939257
0.00935791
0.00930374
0.00923108
0.00914112
0.00903523
0.00891499
0.00878213
0.00863858
0.00848646
0.00832804
0.00816578
0.00800231
0.00784042
0.00768308
0.00753344
0.00739483
0.00727075
0.0071648
0.00708058
0.00702124
0.00698902
0.00698447
0.00700038
-1.94596e-06
7.24657e-07
-2.43141e-05
-7.49711e-05
-0.000145709
-0.000232154
-0.000330077
-0.000435441
-0.000544648
-0.000654555
-0.000762463
-0.000866087
-0.000963514
-0.00105316
-0.0011337
-0.00120407
-0.0012634
-0.001311
-0.00134633
-0.00136899
-0.00137865
-0.00137511
-0.00135821
-0.00132784
-0.00128395
-0.00122652
-0.00115558
-0.0010712
-0.000973448
-0.000862432
-0.000738267
-0.000601108
-0.000451127
-0.000288512
-0.000113485
7.36957e-05
0.000272746
0.000483347
0.000705127
0.000937675
0.00118054
0.00143323
0.00169519
0.00196579
0.00224435
0.00253014
0.00282236
0.00312019
0.00342268
0.00372887
0.00403771
0.00434811
0.00465893
0.00496899
0.00527705
0.00558184
0.00588209
0.00617646
0.00646365
0.0067423
0.00701111
0.00726881
0.00751415
0.00774593
0.00796303
0.00816435
0.00834892
0.00851584
0.00866434
0.0087938
0.0089037
0.00899367
0.00906349
0.00911306
0.0091425
0.00915205
0.00914219
0.00911353
0.00906687
0.00900318
0.0089236
0.00882944
0.00872218
0.00860346
0.00847511
0.0083391
0.00819756
0.00805278
0.00790717
0.00776328
0.00762377
0.00749147
0.00736924
0.00726004
0.00716678
0.00709222
0.00703854
0.00700722
0.00700029
0.00701626
2.66186e-05
2.65313e-05
1.26312e-06
-4.58353e-05
-0.000109755
-0.000186999
-0.000274173
-0.000367932
-0.000465207
-0.000563262
-0.000659687
-0.000752397
-0.000839616
-0.000919842
-0.000991815
-0.00105449
-0.00110701
-0.00114867
-0.00117892
-0.00119733
-0.00120355
-0.00119735
-0.00117855
-0.001147
-0.00110263
-0.00104541
-0.000975318
-0.00089241
-0.000796754
-0.000688435
-0.000567561
-0.000434266
-0.000288709
-0.000131072
3.84289e-05
0.000219539
0.000411981
0.000615445
0.000829573
0.00105396
0.00128817
0.00153171
0.00178406
0.00204459
0.00231265
0.00258754
0.00286849
0.00315469
0.00344525
0.00373922
0.00403563
0.00433343
0.00463152
0.00492877
0.00522402
0.00551606
0.00580367
0.0060856
0.00636058
0.00662737
0.00688472
0.00713144
0.00736636
0.00758835
0.00779634
0.00798933
0.0081664
0.00832671
0.00846957
0.00859439
0.00870071
0.00878818
0.00885663
0.00890598
0.00893636
0.00894803
0.00894145
0.00891724
0.00887617
0.00881917
0.00874734
0.00866192
0.00856433
0.00845614
0.00833907
0.00821498
0.00808588
0.0079539
0.00782127
0.00769034
0.00756355
0.00744341
0.00733246
0.00723328
0.00714836
0.00708001
0.00703007
0.00699994
0.00699322
0.00701185
8.63705e-05
7.79727e-05
4.86428e-05
1.22027e-06
-6.03403e-05
-0.00013306
-0.000214072
-0.000300553
-0.000389877
-0.000479663
-0.000567787
-0.000652382
-0.000731827
-0.000804736
-0.000869932
-0.00092642
-0.000973386
-0.00101016
-0.00103618
-0.00105102
-0.00105434
-0.00104589
-0.00102545
-0.000992896
-0.000948125
-0.000891084
-0.000821756
-0.000740168
-0.000646374
-0.000540445
-0.000422479
-0.000292608
-0.000150975
2.25434e-06
0.000166874
0.000342633
0.00052926
0.000726456
0.000933879
0.00115114
0.00137781
0.00161343
0.00185745
0.0021093
0.00236835
0.0026339
0.00290524
0.00318156
0.00346202
0.00374571
0.00403167
0.0043189
0.00460636
0.00489297
0.0051776
0.0054591
0.00573629
0.00600798
0.00627296
0.00653004
0.00677804
0.00701582
0.00724226
0.0074563
0.00765691
0.00784314
0.00801411
0.00816906
0.00830732
0.00842834
0.00853169
0.00861707
0.00868428
0.00873331
0.00876428
0.00877746
0.0087733
0.0087524
0.00871552
0.00866356
0.00859757
0.00851875
0.00842846
0.0083282
0.00821959
0.00810441
0.00798454
0.00786198
0.00773883
0.00761723
0.00749944
0.00738773
0.0072844
0.00719173
0.00711196
0.00704718
0.00699909
0.00696925
0.00696191
0.00698023
0.000171239
0.000149754
0.000113009
6.24468e-05
4.21184e-07
-7.05524e-05
-0.000148043
-0.000229707
-0.000313321
-0.000396841
-0.000478431
-0.000556446
-0.000629441
-0.000696161
-0.000755534
-0.00080664
-0.000848715
-0.000881127
-0.000903356
-0.000914982
-0.000915674
-0.00090517
-0.000883266
-0.000849808
-0.000804694
-0.000747869
-0.000679307
-0.000599017
-0.000507037
-0.00040343
-0.000288284
-0.000161719
-2.38677e-05
0.000125116
0.000285037
0.000455659
0.000636721
0.000827933
0.00102897
0.00123945
0.00145897
0.00168709
0.00192328
0.00216698
0.00241757
0.00267441
0.0029368
0.00320397
0.0034751
0.0037493
0.00402566
0.00430322
0.00458099
0.00485792
0.00513292
0.00540487
0.00567266
0.00593513
0.00619114
0.00643953
0.00667918
0.00690898
0.00712788
0.00733483
0.00752887
0.00770909
0.00787466
0.00802483
0.00815898
0.00827659
0.00837725
0.00846068
0.00852671
0.00857533
0.00860666
0.00862099
0.00861875
0.00860054
0.00856707
0.00851924
0.00845805
0.00838466
0.00830036
0.00820658
0.00810489
0.00799695
0.00788455
0.00776955
0.00765391
0.00753962
0.00742874
0.00732335
0.00722553
0.00713734
0.00706078
0.00699777
0.00694991
0.00691878
0.00690849
0.00692216
0.00027549
0.000237792
0.000191052
0.000135024
7.01663e-05
-1.41355e-06
-7.76564e-05
-0.000156647
-0.000236547
-0.000315631
-0.000392324
-0.000465208
-0.000533024
-0.000594661
-0.000649158
-0.000695693
-0.000733569
-0.000762198
-0.000781104
-0.000789901
-0.000788272
-0.000775963
-0.000752774
-0.000718553
-0.000673197
-0.000616642
-0.00054886
-0.000469851
-0.000379646
-0.000278294
-0.000165874
-4.24909e-05
9.1731e-05
0.000236649
0.00039208
0.0005578
0.000733565
0.000919099
0.00111409
0.00131818
0.00153098
0.00175206
0.00198093
0.00221703
0.00245978
0.00270856
0.0029627
0.00322147
0.00348405
0.0037496
0.00401724
0.00428605
0.00455507
0.00482329
0.00508966
0.0053531
0.00561252
0.00586681
0.00611487
0.0063556
0.0065879
0.00681069
0.00702296
0.00722371
0.00741201
0.00758698
0.00774781
0.0078938
0.00802435
0.00813894
0.0082372
0.00831885
0.00838375
0.00843188
0.00846337
0.00847851
0.00847772
0.00846158
0.00843079
0.00838621
0.00832881
0.00825971
0.00818015
0.00809149
0.00799523
0.00789294
0.00778631
0.00767709
0.00756711
0.00745822
0.00735231
0.00725128
0.00715702
0.0070714
0.00699623
0.00693323
0.00688393
0.00684985
0.00683436
0.00683988
0.000393886
0.000338081
0.000279517
0.000216179
0.000146542
7.23605e-05
-4.59828e-06
-8.28109e-05
-0.000160787
-0.000237098
-0.000310422
-0.000379557
-0.000443418
-0.000501051
-0.000551622
-0.000594404
-0.000628778
-0.000654227
-0.000670324
-0.000676713
-0.000673104
-0.000659262
-0.000635001
-0.000600179
-0.000554696
-0.000498488
-0.000431519
-0.000353785
-0.000265314
-0.000166149
-5.63562e-05
6.39742e-05
0.000194732
0.000335784
0.000486955
0.000648035
0.000818797
0.000998989
0.00118831
0.00138644
0.00159298
0.00180753
0.00202961
0.00225871
0.00249427
0.0027357
0.00298233
0.00323347
0.00348833
0.0037461
0.00400593
0.00426695
0.00452821
0.00478873
0.0050475
0.00530347
0.00555557
0.00580275
0.00604393
0.00627803
0.00650399
0.00672077
0.00692736
0.00712282
0.00730621
0.0074767
0.0076335
0.00777592
0.00790337
0.00801537
0.00811153
0.0081916
0.00825543
0.00830302
0.00833449
0.00835013
0.00835035
0.0083357
0.00830687
0.0082647
0.00821011
0.0081442
0.00806816
0.00798328
0.007891
0.00779281
0.00769032
0.00758517
0.00747908
0.00737376
0.00727096
0.00717244
0.00707991
0.00699507
0.00691955
0.00685492
0.00680259
0.00676398
0.00674141
0.0067363
0.000521699
0.000446782
0.000375172
0.000303148
0.000227226
0.000148863
6.95858e-05
-9.42382e-06
-8.69911e-05
-0.000161957
-0.000233235
-0.000299835
-0.000360848
-0.000415466
-0.000462984
-0.000502779
-0.000534322
-0.000557169
-0.000570949
-0.000575348
-0.000570107
-0.000555016
-0.00052991
-0.000494662
-0.000449182
-0.000393408
-0.000327302
-0.000250858
-0.000164101
-6.70685e-05
4.01855e-05
0.000157583
0.000285026
0.000422391
0.000569518
0.000726208
0.000892254
0.00106743
0.00125145
0.001444
0.00164473
0.00185323
0.00206906
0.00229173
0.00252072
0.00275545
0.00299528
0.00323954
0.00348747
0.0037383
0.0039912
0.00424532
0.00449975
0.00475354
0.00500568
0.00525517
0.00550097
0.00574204
0.00597734
0.00620581
0.0064264
0.0066381
0.00683993
0.00703094
0.00721024
0.00737699
0.00753042
0.00766987
0.00779473
0.00790454
0.00799891
0.0080776
0.00814046
0.00818748
0.00821879
0.00823466
0.00823549
0.00822181
0.0081943
0.00815376
0.00810112
0.00803739
0.00796375
0.00788143
0.00779181
0.00769632
0.00759648
0.00749384
0.00739002
0.00728662
0.00718527
0.00708757
0.00699512
0.00690945
0.00683204
0.00676429
0.00670751
0.00666301
0.00663191
0.00661449
0.000654828
0.000560389
0.000474985
0.000393287
0.000309951
0.000226183
0.000143302
6.22071e-05
-1.62107e-05
-9.1043e-05
-0.000161421
-0.000226544
-0.000285684
-0.000338177
-0.000383438
-0.000420957
-0.0004503
-0.000471096
-0.000483033
-0.000485846
-0.000479315
-0.000463264
-0.00043755
-0.000402065
-0.000356729
-0.000301486
-0.000236305
-0.000161182
-7.61372e-05
1.88036e-05
0.000123595
0.000238167
0.000362429
0.000496271
0.000639548
0.000792085
0.000953691
0.00112415
0.00130322
0.00149058
0.0016859
0.00188882
0.00209891
0.00231571
0.00253872
0.00276738
0.00300108
0.00323917
0.00348094
0.00372561
0.0039724
0.00422049
0.00446898
0.00471695
0.0049634
0.00520735
0.0054478
0.00568373
0.0059141
0.00613788
0.00635404
0.00656156
0.00675949
0.00694688
0.00712286
0.00728659
0.00743731
0.00757435
0.00769713
0.00780515
0.00789805
0.00797558
0.00803758
0.00808405
0.00811509
0.00813096
0.00813206
0.0081189
0.00809214
0.00805256
0.00800104
0.0079386
0.00786634
0.00778548
0.00769732
0.00760325
0.00750469
0.00740315
0.00730014
0.00719716
0.00709575
0.00699739
0.00690354
0.0068156
0.00673492
0.00666274
0.00660029
0.00654877
0.00650806
0.00647727
0.000789735
0.000675746
0.00057615
0.000484114
0.000392531
0.000302417
0.000214927
0.000130702
5.03869e-05
-2.53305e-05
-9.57856e-05
-0.000160359
-0.000218486
-0.000269643
-0.000313371
-0.000349272
-0.000377003
-0.000396268
-0.000406814
-0.000408433
-0.00040095
-0.000384225
-0.000358144
-0.000322615
-0.000277572
-0.000222973
-0.000158793
-8.50329e-05
-1.70575e-06
9.11711e-05
0.00019356
0.000305397
0.000426601
0.000557073
0.000696688
0.000845293
0.00100272
0.00116877
0.0013432
0.00152574
0.00171606
0.00191384
0.00211867
0.00233013
0.00254773
0.00277092
0.00299915
0.00323176
0.00346808
0.00370737
0.00394885
0.00419173
0.00443513
0.00467814
0.0049198
0.00515913
0.00539515
0.00562686
0.00585323
0.00607323
0.00628584
0.00649006
0.00668492
0.0068695
0.00704292
0.00720433
0.00735299
0.00748821
0.00760939
0.00771605
0.00780781
0.00788441
0.0079457
0.00799165
0.00802236
0.00803807
0.00803915
0.00802612
0.00799961
0.00796036
0.00790926
0.00784728
0.00777549
0.00769507
0.00760728
0.00751345
0.00741495
0.00731322
0.00720968
0.00710578
0.00700293
0.00690254
0.00680596
0.00671448
0.00662931
0.00655157
0.00648243
0.00642297
0.00637188
0.00632712
0.000923369
0.000790041
0.000676102
0.000573305
0.000472889
0.000375724
0.000282842
0.000194651
0.000111587
3.41347e-05
-3.72296e-05
-0.000102053
-0.000159917
-0.000210441
-0.000253288
-0.000288168
-0.000314826
-0.000333041
-0.000342628
-0.000343432
-0.000335327
-0.00031821
-0.000291997
-0.000256619
-0.000212028
-0.000158195
-9.51049e-05
-2.27575e-05
5.88384e-05
0.000149668
0.0002497
0.000358877
0.00047713
0.000604375
0.000740505
0.000885388
0.00103887
0.00120078
0.0013709
0.00154896
0.00173468
0.00192774
0.00212779
0.00233441
0.00254714
0.00276546
0.00298882
0.00321662
0.00344819
0.00368282
0.00391977
0.00415823
0.00439736
0.00463626
0.00487399
0.00510958
0.00534206
0.00557043
0.00579369
0.0060108
0.00622073
0.0064225
0.00661512
0.00679768
0.00696927
0.00712907
0.00727631
0.00741027
0.00753037
0.00763611
0.00772708
0.00780303
0.00786378
0.00790928
0.00793964
0.00795506
0.00795591
0.00794267
0.00791596
0.00787652
0.0078252
0.00776294
0.00769079
0.0076099
0.00752148
0.00742682
0.00732725
0.00722415
0.00711888
0.00701281
0.0069073
0.00680366
0.00670315
0.00660698
0.00651625
0.00643196
0.00635525
0.00628715
0.00622513
0.00616612
0.00105308
0.00090076
0.000772501
0.000658703
0.000549055
0.000444329
0.000345456
0.000252648
0.000166147
8.62568e-05
1.32871e-05
-5.24632e-05
-0.000110717
-0.000161231
-0.000203782
-0.000238179
-0.000264254
-0.000281863
-0.000290892
-0.000291241
-0.000282832
-0.000265598
-0.000239488
-0.000204457
-0.00016048
-0.000107544
-4.56382e-05
2.52387e-05
0.000105077
0.000193865
0.00029157
0.000398148
0.000513545
0.000637691
0.0007705
0.000911856
0.00106163
0.00121966
0.00138575
0.00155966
0.00174115
0.00192991
0.00212562
0.00232789
0.00253626
0.00275026
0.00296936
0.00319298
0.00342047
0.00365115
0.00388429
0.0041191
0.00435475
0.00459035
0.00482498
0.00505768
0.00528749
0.0055134
0.00573441
0.00594948
0.0061576
0.00635774
0.00654894
0.00673025
0.00690077
0.00705966
0.00720611
0.00733941
0.00745895
0.00756422
0.00765479
0.00773037
0.00779079
0.00783598
0.00786601
0.00788107
0.00788151
0.00786779
0.00784053
0.00780043
0.00774832
0.00768513
0.00761188
0.00752968
0.00743973
0.00734327
0.00724161
0.00713605
0.00702795
0.0069186
0.00680929
0.00670129
0.00659578
0.00649389
0.00639665
0.00630496
0.00621996
0.00614264
0.00606934
0.00599598
0.00117654
0.00100565
0.000863196
0.000738306
0.000619182
0.000506534
0.000401226
0.000303296
0.000212807
0.000129909
5.47587e-05
-1.24906e-05
-7.16991e-05
-0.000122745
-0.000165515
-0.000199909
-0.000225847
-0.000243263
-0.000252106
-0.000252339
-0.000243926
-0.00022684
-0.000201062
-0.000166577
-0.000123382
-7.14759e-05
-1.08523e-05
5.84862e-05
0.000136528
0.000223261
0.000318662
0.000422691
0.000535311
0.000656471
0.000786104
0.000924111
0.00107038
0.00122477
0.0013871
0.00155719
0.00173479
0.00191964
0.00211144
0.0023098
0.00251432
0.00272454
0.00293995
0.00315999
0.00338405
0.00361145
0.00384148
0.00407338
0.00430631
0.00453941
0.00477174
0.00500238
0.00523034
0.00545464
0.00567425
0.00588814
0.00609528
0.00629463
0.0064852
0.00666605
0.00683624
0.00699491
0.00714124
0.0072745
0.00739403
0.00749929
0.00758987
0.00766543
0.00772577
0.00777081
0.00780058
0.00781527
0.00781519
0.0078008
0.00777268
0.00773152
0.00767813
0.00761343
0.0075384
0.00745416
0.00736186
0.00726272
0.00715803
0.00704905
0.0069371
0.00682343
0.00670931
0.00659593
0.00648445
0.00637592
0.00627132
0.0061715
0.00607758
0.00599058
0.00590575
0.00581807
0.0012917
0.00110267
0.000946226
0.00081025
0.000681521
0.00056072
0.00044866
0.000345221
0.000250316
0.000163952
8.61453e-05
1.69114e-05
-4.37342e-05
-9.578e-05
-0.000139214
-0.000174032
-0.000200236
-0.000217835
-0.000226841
-0.000227272
-0.000219139
-0.000202454
-0.000177235
-0.000143496
-0.000101249
-5.05066e-05
8.72925e-06
7.64506e-05
0.000152644
0.0002373
0.000330399
0.000431917
0.000541828
0.0006601
0.000786682
0.000921495
0.00106445
0.00121542
0.00137426
0.00154081
0.00171485
0.00189616
0.00208443
0.00227933
0.00248046
0.0026874
0.00289966
0.00311671
0.00333795
0.00356272
0.00379033
0.00402001
0.00425096
0.00448231
0.00471315
0.00494252
0.00516947
0.00539298
0.00561204
0.00582558
0.00603256
0.00623194
0.0064227
0.00660387
0.00677449
0.00693367
0.00708056
0.00721438
0.00733448
0.00744027
0.00753129
0.00760721
0.00766777
0.00771286
0.00774251
0.00775687
0.00775623
0.00774102
0.00771181
0.00766926
0.00761418
0.00754745
0.00747007
0.00738311
0.00728773
0.00718512
0.00707654
0.00696325
0.00684652
0.0067276
0.00660772
0.00648804
0.00636968
0.00625369
0.00614096
0.00603234
0.00592897
0.0058319
0.00573537
0.00563344
0.00139669
0.00118999
0.00101979
0.000872802
0.000734435
0.000605341
0.000486309
0.000377081
0.000277432
0.000187238
0.000106384
3.47596e-05
-2.77295e-05
-8.11752e-05
-0.000125665
-0.000161283
-0.000188114
-0.000206237
-0.000215726
-0.000216648
-0.000209063
-0.000193026
-0.000168588
-0.000135789
-9.46584e-05
-4.5218e-05
1.25183e-05
7.85354e-05
0.000152818
0.000235358
0.000326148
0.000425175
0.000532427
0.00064789
0.000771528
0.000903284
0.00104308
0.00119084
0.00134643
0.0015097
0.00168049
0.00185858
0.00204371
0.00223555
0.00243374
0.00263788
0.00284751
0.00306211
0.00328111
0.00350387
0.0037297
0.00395786
0.00418755
0.00441789
0.00464799
0.00487689
0.00510362
0.00532717
0.00554649
0.00576052
0.00596819
0.00616842
0.00636018
0.00654247
0.00671429
0.00687471
0.00702286
0.00715792
0.00727919
0.00738605
0.00747802
0.00755471
0.00761584
0.00766127
0.00769098
0.00770511
0.00770392
0.00768781
0.00765734
0.00761315
0.00755603
0.00748686
0.00740661
0.00731634
0.00721721
0.0071104
0.00699716
0.00687873
0.00675638
0.00663134
0.00650483
0.006378
0.00625195
0.00612771
0.00600617
0.00588814
0.00577484
0.00566736
0.00555897
0.00544288
0.00148984
0.00126593
0.00108224
0.000924355
0.000776373
0.000638922
0.000512779
0.000397566
0.000292927
0.000198614
0.000114396
4.00513e-05
-2.46195e-05
-7.98074e-05
-0.000125694
-0.000162447
-0.000190229
-0.000209184
-0.000219446
-0.000221133
-0.000214353
-0.0001992
-0.000175759
-0.000144091
-0.000104243
-5.62483e-05
-1.35106e-07
6.40776e-05
0.000136375
0.000216753
0.000305209
0.000401749
0.000506376
0.000619088
0.000739869
0.00086868
0.00100547
0.00115019
0.00130273
0.00146298
0.00163079
0.00180597
0.00198829
0.00217745
0.00237311
0.0025749
0.00278238
0.00299506
0.00321239
0.00343373
0.00365841
0.0038857
0.00411481
0.00434486
0.00457497
0.00480417
0.00503147
0.00525587
0.00547628
0.00569163
0.00590081
0.00610273
0.00629632
0.00648053
0.00665435
0.00681679
0.00696692
0.00710392
0.00722701
0.00733555
0.007429
0.00750694
0.00756904
0.00761513
0.00764516
0.00765923
0.00765756
0.00764056
0.00760873
0.00756272
0.00750328
0.0074313
0.00734773
0.00725365
0.00715018
0.00703852
0.0069199
0.00679559
0.00666683
0.00653488
0.00640093
0.00626615
0.00613164
0.00599844
0.00586744
0.00573944
0.00561575
0.00549753
0.00537715
0.00524696
0.0015696
0.00132893
0.00113203
0.000963401
0.000805871
0.00066006
0.000526731
0.000405397
0.000295583
0.000196928
0.000109097
3.17658e-05
-3.53683e-05
-9.25897e-05
-0.000140168
-0.000178351
-0.000207372
-0.000227439
-0.000238741
-0.000241449
-0.000235719
-0.000221682
-0.000199445
-0.000169094
-0.000130696
-8.43001e-05
-2.99399e-05
3.23597e-05
0.000102584
0.000180734
0.000266821
0.000360861
0.000462874
0.000572872
0.000690857
0.000816814
0.000950724
0.00109255
0.00124223
0.00139967
0.00156475
0.0017373
0.00191712
0.00210394
0.00229746
0.00249731
0.0027031
0.00291435
0.00313052
0.003351
0.00357513
0.00380219
0.00403138
0.00426185
0.00449269
0.00472294
0.00495161
0.00517765
0.00539997
0.00561747
0.00582901
0.00603346
0.00622972
0.00641669
0.00659332
0.00675857
0.00691148
0.00705114
0.00717676
0.00728762
0.00738315
0.00746287
0.00752641
0.00757356
0.00760423
0.00761846
0.00761648
0.00759864
0.00756543
0.00751748
0.00745553
0.00738045
0.0072932
0.00719484
0.00708652
0.00696942
0.00684478
0.00671389
0.006578
0.00643838
0.00629624
0.00615277
0.00600908
0.00586624
0.00572515
0.00558665
0.00545213
0.00532285
0.00519029
0.005046
0.00163451
0.00137753
0.00116771
0.000988513
0.000821538
0.000667402
0.000526859
0.00039932
0.000284201
0.000181041
8.94052e-05
8.87074e-06
-6.09607e-05
-0.000120463
-0.000169989
-0.000209862
-0.000240378
-0.000261808
-0.000274399
-0.000278374
-0.000273926
-0.000261221
-0.000240393
-0.000211549
-0.000174773
-0.000130131
-7.76637e-05
-1.73999e-05
5.06502e-05
0.000126497
0.000210159
0.000301668
0.000401055
0.00050835
0.000623577
0.000746748
0.000877868
0.00101693
0.00116389
0.00131871
0.00148126
0.00165143
0.00182903
0.00201383
0.00220555
0.00240386
0.00260838
0.00281865
0.00303416
0.00325431
0.00347846
0.00370589
0.00393581
0.00416737
0.00439965
0.0046317
0.0048625
0.00509098
0.00531603
0.00553651
0.00575125
0.0059591
0.00615889
0.00634949
0.00652978
0.00669868
0.00685517
0.00699829
0.00712718
0.00724108
0.00733934
0.00742144
0.00748696
0.00753564
0.00756733
0.00758205
0.00757998
0.00756144
0.0075269
0.00747696
0.00741237
0.00733398
0.00724275
0.00713974
0.00702609
0.00690303
0.00677179
0.00663368
0.00648999
0.006342
0.00619096
0.00603808
0.00588453
0.00573139
0.00557962
0.00543008
0.00528428
0.00514359
0.00499864
0.00484017
0.00168324
0.00141037
0.00118792
0.000998337
0.000822044
0.000659646
0.000511898
0.000378112
0.000257607
0.000149825
5.42365e-05
-2.9674e-05
-0.000102398
-0.000164393
-0.000216087
-0.000257874
-0.000290116
-0.000313144
-0.000327258
-0.000332727
-0.000329783
-0.000318621
-0.0002994
-0.000272253
-0.000237279
-0.000194556
-0.000144133
-8.60371e-05
-2.02739e-05
5.31743e-05
0.000134338
0.000223259
0.000319985
0.000424566
0.000537047
0.000657469
0.000785864
0.000922252
0.00106663
0.00121896
0.00137917
0.00154717
0.00172279
0.00190584
0.00209607
0.00229319
0.00249682
0.00270654
0.00292185
0.00314217
0.00336687
0.00359524
0.00382651
0.00405982
0.00429424
0.00452882
0.0047625
0.00499421
0.0052228
0.00544711
0.00566592
0.00587804
0.00608225
0.00627736
0.0064622
0.00663564
0.00679657
0.00694399
0.00707696
0.00719466
0.00729639
0.00738154
0.00744966
0.0075004
0.00753358
0.00754918
0.00754732
0.00752831
0.00749257
0.00744069
0.00737341
0.00729156
0.00719611
0.00708813
0.00696878
0.00683927
0.00670091
0.006555
0.00640287
0.00624585
0.00608524
0.00592228
0.00575819
0.00559411
0.00543105
0.00526993
0.00511238
0.00495991
0.00480229
0.00462947
0.0017145
0.00142614
0.00119135
0.000991579
0.000806105
0.000635535
0.000480618
0.000340579
0.000214643
0.000102162
2.50972e-06
-8.49178e-05
-0.000160694
-0.000225358
-0.000279411
-0.000323314
-0.000357492
-0.000382333
-0.000398191
-0.000405372
-0.000404142
-0.000394727
-0.000377315
-0.000352057
-0.000319072
-0.000278442
-0.000230224
-0.000174441
-0.000111094
-4.01577e-05
3.84096e-05
0.000124663
0.000218668
0.000320493
0.000430212
0.000547892
0.000673596
0.000807369
0.000949237
0.00109919
0.0012572
0.00142319
0.00159704
0.00177858
0.0019676
0.00216382
0.00236692
0.00257647
0.002792
0.00301296
0.00323872
0.00346858
0.00370178
0.00393747
0.00417471
0.00441251
0.00464984
0.00488556
0.00511852
0.0053475
0.00557126
0.00578854
0.00599808
0.00619863
0.00638896
0.00656785
0.00673415
0.00688676
0.00702469
0.00714705
0.00725303
0.00734199
0.00741339
0.00746682
0.00750206
0.00751902
0.00751777
0.00749858
0.00746186
0.00740817
0.00733822
0.00725285
0.00715302
0.00703982
0.00691442
0.00677807
0.0066321
0.00647785
0.0063167
0.00615003
0.00597919
0.00580549
0.0056302
0.00545455
0.00527959
0.00510632
0.00493652
0.00477184
0.00460121
0.00441376
0.00172707
0.00142359
0.00117675
0.000966988
0.000772481
0.000593844
0.000431824
0.000285558
0.000154177
3.69429e-05
-6.68546e-05
-0.000157907
-0.00023687
-0.000304355
-0.000360932
-0.000407131
-0.000443439
-0.000470297
-0.000488103
-0.000497201
-0.00049789
-0.000490428
-0.000475027
-0.000451858
-0.000421052
-0.000382701
-0.00033686
-0.000283552
-0.000222769
-0.000154479
-7.86308e-05
4.84765e-06
9.60403e-05
0.00019504
0.000301949
0.000416861
0.000539868
0.000671044
0.000810444
0.000958097
0.001114
0.0012781
0.00145033
0.00163056
0.00181859
0.00201419
0.00221704
0.00242676
0.00264289
0.00286491
0.0030922
0.00332408
0.00355977
0.00379844
0.00403915
0.00428088
0.00452258
0.00476311
0.00500125
0.00523576
0.00546536
0.00568872
0.00590454
0.0061115
0.00630828
0.00649361
0.00666624
0.00682502
0.00696886
0.00709678
0.00720792
0.00730152
0.00737699
0.00743384
0.00747179
0.00749067
0.00749053
0.00747157
0.00743417
0.00737887
0.00730636
0.00721748
0.00711319
0.00699459
0.00686287
0.00671933
0.00656532
0.00640224
0.00623152
0.0060546
0.0058729
0.00568781
0.00550067
0.00531279
0.00512531
0.0049393
0.0047567
0.00457934
0.00439526
0.00419281
0.00171978
0.00140155
0.0011429
0.000923357
0.000719983
0.000533402
0.00036436
0.000211907
7.50867e-05
-4.69262e-05
-0.000154929
-0.000249693
-0.000331949
-0.000402382
-0.000461633
-0.000510296
-0.000548915
-0.000577979
-0.000597924
-0.000609136
-0.000611948
-0.000606646
-0.000593464
-0.000572591
-0.000544167
-0.00050829
-0.000465014
-0.000414358
-0.00035631
-0.000290827
-0.000217849
-0.000137283
-4.90219e-05
4.70507e-05
0.000151063
0.000263141
0.000383403
0.000511955
0.000648884
0.000794252
0.000948089
0.00111039
0.00128111
0.00146016
0.00164738
0.00184256
0.00204542
0.0022556
0.00247268
0.00269613
0.00292538
0.00315975
0.00339847
0.00364069
0.00388549
0.00413184
0.00437864
0.00462474
0.00486889
0.0051098
0.00534614
0.00557654
0.00579962
0.00601398
0.00621824
0.00641104
0.00659107
0.00675705
0.00690783
0.00704233
0.00715959
0.00725877
0.00733919
0.00740029
0.00744169
0.00746318
0.00746474
0.00744651
0.00740884
0.00735223
0.00727737
0.00718507
0.00707632
0.00695221
0.00681398
0.00666295
0.00650052
0.00632815
0.00614735
0.00595961
0.00576644
0.00556931
0.00536967
0.00516889
0.00496823
0.00476885
0.00457287
0.00438226
0.00418423
0.00396628
0.00169149
0.00135883
0.00108866
0.00085953
0.00064746
0.000453065
0.000277096
0.000118515
-2.37244e-05
-0.000150528
-0.000262775
-0.000361315
-0.000446953
-0.000520449
-0.000582511
-0.000633792
-0.000674888
-0.000706334
-0.000728606
-0.000742129
-0.00074727
-0.000744338
-0.000733589
-0.000715226
-0.000689398
-0.000656204
-0.000615698
-0.000567895
-0.000512777
-0.000450294
-0.000380365
-0.000302879
-0.000217706
-0.000124702
-2.37123e-05
8.54197e-05
0.000202844
0.000328695
0.000463097
0.000606147
0.000757915
0.000918435
0.0010877
0.00126566
0.00145218
0.0016471
0.00185016
0.00206104
0.00227934
0.00250457
0.00273616
0.00297344
0.00321568
0.00346201
0.0037115
0.00396311
0.00421573
0.00446817
0.00471915
0.00496734
0.00521136
0.00544977
0.00568111
0.00590393
0.00611675
0.00631813
0.00650666
0.00668097
0.00683981
0.00698198
0.00710644
0.00721225
0.00729862
0.0073649
0.00741063
0.00743553
0.00743948
0.0074226
0.00738517
0.00732767
0.00725075
0.00715523
0.00704209
0.00691245
0.00676757
0.00660881
0.00643764
0.00625558
0.0060642
0.0058651
0.00565986
0.00545005
0.00523723
0.00502288
0.00480835
0.00459492
0.00438489
0.00418044
0.00396784
0.00373376
0.0016411
0.00129435
0.00101289
0.000774386
0.000553792
0.000351723
0.000168929
4.28785e-06
-0.000143335
-0.000274925
-0.00039144
-0.000493806
-0.000582906
-0.00065957
-0.000724568
-0.000778609
-0.000822337
-0.000856334
-0.00088112
-0.000897154
-0.000904831
-0.000904487
-0.000896394
-0.000880768
-0.000857762
-0.000827476
-0.000789966
-0.000745244
-0.000693283
-0.000634018
-0.000567352
-0.000493151
-0.00041126
-0.000321509
-0.000223715
-0.000117689
-3.25021e-06
0.00011977
0.000251532
0.000392174
0.000541808
0.000700507
0.000868305
0.00104519
0.00123107
0.00142582
0.00162922
0.00184097
0.00206072
0.00228799
0.00252225
0.00276284
0.00300903
0.00325997
0.00351472
0.00377222
0.00403136
0.0042909
0.00454953
0.00480589
0.00505853
0.00530594
0.00554661
0.00577898
0.00600151
0.00621264
0.00641086
0.00659472
0.00676282
0.00691388
0.00704673
0.00716032
0.00725376
0.00732629
0.00737735
0.00740656
0.00741375
0.00739895
0.0073624
0.00730453
0.00722596
0.00712751
0.00701016
0.00687505
0.00672347
0.00655682
0.00637664
0.00618452
0.00598212
0.00577111
0.00555321
0.00533008
0.00510339
0.00487476
0.00464564
0.00441743
0.00419265
0.00397365
0.00374579
0.00349483
0.00156753
0.00120701
0.000914518
0.00066684
0.000437897
0.000228296
3.87833e-05
-0.000131843
-0.000284804
-0.000421164
-0.000541959
-0.000648195
-0.000740828
-0.000820754
-0.000888803
-0.000945736
-0.000992249
-0.00102897
-0.00105646
-0.0010752
-0.00108563
-0.0010881
-0.0010829
-0.00107025
-0.00105031
-0.00102318
-0.000988918
-0.000947533
-0.000898984
-0.000843191
-0.000780038
-0.000709366
-0.000630995
-0.000544729
-0.000450354
-0.000347649
-0.0002364
-0.000116401
1.2547e-05
0.000150628
0.000297995
0.000454765
0.000621014
0.000796769
0.000981997
0.0011766
0.00138039
0.00159313
0.00181448
0.00204401
0.0022812
0.00252543
0.00277597
0.00303198
0.0032925
0.0035565
0.00382282
0.00409021
0.00435732
0.00462274
0.00488495
0.0051424
0.00539349
0.00563657
0.00586999
0.00609212
0.00630132
0.00649602
0.00667471
0.00683598
0.00697853
0.00710119
0.00720294
0.00728291
0.00734044
0.00737503
0.00738643
0.00737459
0.00733968
0.0072821
0.00720242
0.00710145
0.00698017
0.00683974
0.00668148
0.00650685
0.00631745
0.00611495
0.0059011
0.0056777
0.00544654
0.00520945
0.00496819
0.00472453
0.00448005
0.00423629
0.00399596
0.00376166
0.00351773
0.00324899
0.00146973
0.00109575
0.000792489
0.000535836
0.000298715
8.17267e-05
-0.000114391
-0.00029092
-0.000449164
-0.000590271
-0.000715356
-0.000825502
-0.000921731
-0.001005
-0.00107621
-0.00113617
-0.00118562
-0.00122524
-0.00125562
-0.00127729
-0.0012907
-0.00129622
-0.00129415
-0.00128473
-0.00126811
-0.00124442
-0.00121369
-0.00117593
-0.00113108
-0.00107905
-0.0010197
-0.000952844
-0.00087828
-0.000795783