/*--------------------------------*- C++ -*----------------------------------*\
| =========                 |                                                 |
| \\      /  F ield         | OpenFOAM: The Open Source CFD Toolbox           |
|  \\    /   O peration     | Version:  2512                                  |
|   \\  /    A nd           | Website:  www.openfoam.com                      |
|    \\/     M anipulation  |                                                 |
\*---------------------------------------------------------------------------*/
FoamFile
{
    version     2.0;
    format      ascii;
    arch        "LSB;label=32;scalar=64";
    class       surfaceScalarField;
    location    "0.36";
    object      phi;
}
// * * * * * * * * * * * * * * * * * * * * * * * * * * * * * * * * * * * * * //

dimensions      [0 3 -1 0 0 0 0];

oriented        oriented;

internalField   nonuniform List<scalar> 
19800
(
7.03691e-11
-7.03999e-11
2.1089e-10
-1.4052e-10
3.42436e-10
-1.31552e-10
4.17457e-10
-7.50114e-11
4.11968e-10
5.48857e-12
3.15269e-10
9.6699e-11
1.242e-10
1.91065e-10
-1.59843e-10
2.84046e-10
-5.32885e-10
3.73037e-10
-9.89461e-10
4.56569e-10
-1.5233e-09
5.33842e-10
-2.1278e-09
6.04491e-10
-2.79622e-09
6.68423e-10
-3.52193e-09
7.25709e-10
-4.29847e-09
7.76543e-10
-5.11965e-09
8.21185e-10
-5.97957e-09
8.59924e-10
-6.87263e-09
8.9307e-10
-7.79357e-09
9.20945e-10
-8.73743e-09
9.43865e-10
-9.69956e-09
9.62128e-10
-1.06756e-08
9.76011e-10
-1.16613e-08
9.85767e-10
-1.2653e-08
9.91625e-10
-1.36468e-08
9.93798e-10
-1.46392e-08
9.92464e-10
-1.5627e-08
9.87761e-10
-1.66068e-08
9.79829e-10
-1.75756e-08
9.68777e-10
-1.85303e-08
9.54675e-10
-1.94679e-08
9.3758e-10
-2.03854e-08
9.17554e-10
-2.128e-08
8.94625e-10
-2.21488e-08
8.68799e-10
-2.29889e-08
8.40083e-10
-2.37974e-08
8.08492e-10
-2.45714e-08
7.74026e-10
-2.53081e-08
7.36676e-10
-2.60046e-08
6.96452e-10
-2.66579e-08
6.53368e-10
-2.72654e-08
6.07439e-10
-2.78241e-08
5.58686e-10
-2.83312e-08
5.07147e-10
-2.87841e-08
4.52895e-10
-2.91801e-08
3.96021e-10
-2.95167e-08
3.36627e-10
-2.97916e-08
2.74832e-10
-3.00024e-08
2.10784e-10
-3.0147e-08
1.44664e-10
-3.02237e-08
7.66871e-11
-3.02308e-08
7.08697e-12
-3.01669e-08
-6.38779e-11
-3.0031e-08
-1.35913e-10
-2.98223e-08
-2.08698e-10
-2.95404e-08
-2.81886e-10
-2.91853e-08
-3.55096e-10
-2.87574e-08
-4.27935e-10
-2.82574e-08
-4.99991e-10
-2.76866e-08
-5.70823e-10
-2.70466e-08
-6.39973e-10
-2.63396e-08
-7.06979e-10
-2.55683e-08
-7.71369e-10
-2.47356e-08
-8.32669e-10
-2.38452e-08
-8.90417e-10
-2.2901e-08
-9.44145e-10
-2.19076e-08
-9.93398e-10
-2.08699e-08
-1.03774e-09
-1.97931e-08
-1.07675e-09
-1.86831e-08
-1.11004e-09
-1.75458e-08
-1.13727e-09
-1.63877e-08
-1.15812e-09
-1.52154e-08
-1.17232e-09
-1.40358e-08
-1.17964e-09
-1.28559e-08
-1.17989e-09
-1.16829e-08
-1.17295e-09
-1.05242e-08
-1.15875e-09
-9.38691e-09
-1.13728e-09
-8.27833e-09
-1.10858e-09
-7.20556e-09
-1.07277e-09
-6.17554e-09
-1.03001e-09
-5.19501e-09
-9.80531e-10
-4.27038e-09
-9.24624e-10
-3.40773e-09
-8.62644e-10
-2.61273e-09
-7.95005e-10
-1.89054e-09
-7.2219e-10
-1.24578e-09
-6.44757e-10
-6.8243e-10
-5.63347e-10
-2.03747e-10
-4.78689e-10
1.87873e-10
-3.91624e-10
4.9102e-10
-3.03146e-10
7.0545e-10
-2.14426e-10
8.32434e-10
-1.26984e-10
8.75132e-10
-4.26982e-11
8.39254e-10
3.58827e-11
7.34072e-10
1.0519e-10
5.73966e-10
1.60108e-10
3.80714e-10
1.93246e-10
1.87097e-10
1.93614e-10
4.19518e-11
1.45149e-10
4.19489e-11
1.41203e-10
-2.116e-10
3.51015e-10
-3.50334e-10
5.00648e-10
-2.81191e-10
5.06068e-10
-8.04294e-11
3.14766e-10
1.96794e-10
-1.02109e-10
5.13577e-10
-7.56736e-10
8.45698e-10
-1.65019e-09
1.17751e-09
-2.7762e-09
1.49905e-09
-4.12374e-09
1.80411e-09
-5.67883e-09
2.08893e-09
-7.42578e-09
2.35145e-09
-9.34803e-09
2.59068e-09
-1.14287e-08
2.80641e-09
-1.36511e-08
2.99891e-09
-1.59987e-08
3.16883e-09
-1.84558e-08
3.31698e-09
-2.10071e-08
3.44432e-09
-2.3638e-08
3.55186e-09
-2.63348e-08
3.64063e-09
-2.90843e-08
3.71163e-09
-3.18741e-08
3.76582e-09
-3.46924e-08
3.80409e-09
-3.7528e-08
3.82725e-09
-4.03702e-08
3.83604e-09
-4.32089e-08
3.83111e-09
-4.60341e-08
3.81301e-09
-4.88365e-08
3.78223e-09
-5.16069e-08
3.73915e-09
-5.43363e-08
3.68409e-09
-5.70161e-08
3.6173e-09
-5.96375e-08
3.53898e-09
-6.21921e-08
3.44926e-09
-6.46716e-08
3.34824e-09
-6.70675e-08
3.23599e-09
-6.93715e-08
3.11254e-09
-7.15754e-08
2.97794e-09
-7.3671e-08
2.83221e-09
-7.565e-08
2.67542e-09
-7.75042e-08
2.50764e-09
-7.92258e-08
2.32898e-09
-8.08067e-08
2.13958e-09
-8.22392e-08
1.93966e-09
-8.35158e-08
1.72949e-09
-8.46292e-08
1.50942e-09
-8.55725e-08
1.27988e-09
-8.6339e-08
1.04137e-09
-8.69227e-08
7.94514e-10
-8.73181e-08
5.40011e-10
-8.75201e-08
2.78675e-10
-8.75244e-08
1.14201e-11
-8.73275e-08
-2.60742e-10
-8.69268e-08
-5.36689e-10
-8.63203e-08
-8.15187e-10
-8.55072e-08
-1.09491e-09
-8.44879e-08
-1.37446e-09
-8.32635e-08
-1.65231e-09
-8.18366e-08
-1.9269e-09
-8.02108e-08
-2.1966e-09
-7.83911e-08
-2.45968e-09
-7.63837e-08
-2.71442e-09
-7.4196e-08
-2.95906e-09
-7.18368e-08
-3.19185e-09
-6.93162e-08
-3.41101e-09
-6.66455e-08
-3.61483e-09
-6.38373e-08
-3.80163e-09
-6.09053e-08
-3.96977e-09
-5.78643e-08
-4.11774e-09
-5.47302e-08
-4.24411e-09
-5.15199e-08
-4.34757e-09
-4.82511e-08
-4.42695e-09
-4.49421e-08
-4.48127e-09
-4.16121e-08
-4.50967e-09
-3.82805e-08
-4.51152e-09
-3.49671e-08
-4.48635e-09
-3.16919e-08
-4.43393e-09
-2.84749e-08
-4.35423e-09
-2.53361e-08
-4.24746e-09
-2.22948e-08
-4.11403e-09
-1.93702e-08
-3.95463e-09
-1.65806e-08
-3.77015e-09
-1.39435e-08
-3.56172e-09
-1.14754e-08
-3.33074e-09
-9.19154e-09
-3.07884e-09
-7.1058e-09
-2.80793e-09
-5.23034e-09
-2.52022e-09
-3.57547e-09
-2.21823e-09
-2.1493e-09
-1.90486e-09
-9.57444e-10
-1.58348e-09
-2.56954e-12
-1.25802e-09
7.16229e-10
-9.33228e-10
1.20403e-09
-6.1479e-10
1.47127e-09
-3.09927e-10
1.53503e-09
-2.78694e-11
1.42095e-09
2.19269e-10
1.1657e-09
4.15353e-10
8.19956e-10
5.38989e-10
4.51294e-10
5.62283e-10
1.44645e-10
4.5179e-10
1.8659e-10
1.33262e-10
-3.44868e-10
2.84665e-10
-5.01731e-10
3.04692e-10
-3.01229e-10
9.4531e-11
1.29733e-10
-4.1106e-10
7.02378e-10
-1.25075e-09
1.35327e-09
-2.44303e-09
2.03797e-09
-3.99165e-09
2.72612e-09
-5.88988e-09
3.39729e-09
-8.12378e-09
4.03801e-09
-1.06745e-08
4.63967e-09
-1.35202e-08
5.19709e-09
-1.66369e-08
5.70746e-09
-2.00002e-08
6.16966e-09
-2.3585e-08
6.5837e-09
-2.73666e-08
6.95043e-09
-3.13208e-08
7.27121e-09
-3.54242e-08
7.54774e-09
-3.96542e-08
7.7819e-09
-4.39893e-08
7.97566e-09
-4.84086e-08
8.13098e-09
-5.28926e-08
8.24976e-09
-5.74223e-08
8.33379e-09
-6.19798e-08
8.38474e-09
-6.65478e-08
8.40411e-09
-7.111e-08
8.39324e-09
-7.56503e-08
8.35329e-09
-8.01533e-08
8.28529e-09
-8.46042e-08
8.19007e-09
-8.89885e-08
8.06833e-09
-9.32918e-08
7.92061e-09
-9.75002e-08
7.74736e-09
-1.016e-07
7.54893e-09
-1.05577e-07
7.32554e-09
-1.09419e-07
7.07739e-09
-1.13111e-07
6.80463e-09
-1.1664e-07
6.50739e-09
-1.19994e-07
6.18581e-09
-1.23158e-07
5.84005e-09
-1.26121e-07
5.47034e-09
-1.28869e-07
5.07697e-09
-1.3139e-07
4.66034e-09
-1.33671e-07
4.22097e-09
-1.35701e-07
3.75949e-09
-1.37468e-07
3.27672e-09
-1.38962e-07
2.77364e-09
-1.40172e-07
2.25141e-09
-1.41089e-07
1.71138e-09
-1.41704e-07
1.15514e-09
-1.4201e-07
5.84479e-10
-1.42e-07
1.39287e-12
-1.41669e-07
-5.91885e-10
-1.41013e-07
-1.19291e-09
-1.40029e-07
-1.79903e-09
-1.38716e-07
-2.40736e-09
-1.37076e-07
-3.01484e-09
-1.3511e-07
-3.61826e-09
-1.32823e-07
-4.21421e-09
-1.3022e-07
-4.79916e-09
-1.2731e-07
-5.3695e-09
-1.24103e-07
-5.92148e-09
-1.20611e-07
-6.45137e-09
-1.16847e-07
-6.95539e-09
-1.12829e-07
-7.4298e-09
-1.08572e-07
-7.87091e-09
-1.04099e-07
-8.27516e-09
-9.94296e-08
-8.6391e-09
-9.45879e-08
-8.95949e-09
-8.95987e-08
-9.23329e-09
-8.44885e-08
-9.45774e-09
-7.9285e-08
-9.6304e-09
-7.40172e-08
-9.74913e-09
-6.87147e-08
-9.81217e-09
-6.3408e-08
-9.81818e-09
-5.81282e-08
-9.76621e-09
-5.29063e-08
-9.65578e-09
-4.77737e-08
-9.48688e-09
-4.27612e-08
-9.25998e-09
-3.78991e-08
-8.97603e-09
-3.32173e-08
-8.63653e-09
-2.8744e-08
-8.24344e-09
-2.45064e-08
-7.7993e-09
-2.05299e-08
-7.30716e-09
-1.68381e-08
-6.77066e-09
-1.34521e-08
-6.19401e-09
-1.03902e-08
-5.58208e-09
-7.66797e-09
-4.94047e-09
-5.29724e-09
-4.2756e-09
-3.28584e-09
-3.59489e-09
-1.63687e-09
-2.90699e-09
-3.47963e-10
-2.22213e-09
5.8983e-10
-1.55258e-09
1.19327e-09
-9.13364e-10
1.48856e-09
-3.23157e-10
1.51334e-09
1.94481e-10
1.31904e-09
6.09651e-10
9.73409e-10
8.84625e-10
5.6267e-10
9.73017e-10
1.92967e-10
8.21483e-10
3.79557e-10
7.78278e-11
-4.22692e-10
8.59661e-11
-5.09864e-10
-1.23754e-10
-9.15068e-11
-6.52109e-10
6.58096e-10
-1.56716e-09
1.61743e-09
-2.91061e-09
2.69674e-09
-4.70334e-09
3.8307e-09
-6.95017e-09
4.97294e-09
-9.64389e-09
6.091e-09
-1.27685e-08
7.1626e-09
-1.63017e-08
8.17293e-09
-2.02172e-08
9.11254e-09
-2.44856e-08
9.97592e-09
-2.90764e-08
1.07604e-08
-3.3958e-08
1.14653e-08
-3.90991e-08
1.20914e-08
-4.44684e-08
1.26405e-08
-5.00355e-08
1.31149e-08
-5.57711e-08
1.35175e-08
-6.16466e-08
1.38512e-08
-6.76346e-08
1.4119e-08
-7.37089e-08
1.4324e-08
-7.98442e-08
1.44691e-08
-8.60164e-08
1.45569e-08
-9.22022e-08
1.45899e-08
-9.83793e-08
1.45703e-08
-1.04526e-07
1.45e-08
-1.10621e-07
1.43807e-08
-1.16645e-07
1.42138e-08
-1.22577e-07
1.40006e-08
-1.28399e-07
1.37419e-08
-1.3409e-07
1.34386e-08
-1.39632e-07
1.30913e-08
-1.45007e-07
1.27005e-08
-1.50196e-07
1.22665e-08
-1.55181e-07
1.17897e-08
-1.59944e-07
1.12703e-08
-1.64467e-07
1.07088e-08
-1.68733e-07
1.01054e-08
-1.72723e-07
9.46072e-09
-1.76421e-07
8.77525e-09
-1.79811e-07
8.04977e-09
-1.82875e-07
7.28527e-09
-1.85598e-07
6.48294e-09
-1.87966e-07
5.64426e-09
-1.89963e-07
4.77097e-09
-1.91577e-07
3.86516e-09
-1.92795e-07
2.92921e-09
-1.93606e-07
1.9659e-09
-1.94e-07
9.78344e-10
-1.93968e-07
-2.99702e-11
-1.93505e-07
-1.05518e-09
-1.92605e-07
-2.09307e-09
-1.91265e-07
-3.13906e-09
-1.89484e-07
-4.18822e-09
-1.87263e-07
-5.23532e-09
-1.84607e-07
-6.27482e-09
-1.8152e-07
-7.30094e-09
-1.78012e-07
-8.30767e-09
-1.74092e-07
-9.28881e-09
-1.69776e-07
-1.02381e-08
-1.65078e-07
-1.11491e-08
-1.60018e-07
-1.20154e-08
-1.54617e-07
-1.28307e-08
-1.48899e-07
-1.35887e-08
-1.42891e-07
-1.42835e-08
-1.36621e-07
-1.49092e-08
-1.3012e-07
-1.54603e-08
-1.23422e-07
-1.59317e-08
-1.16561e-07
-1.63187e-08
-1.09574e-07
-1.66173e-08
-1.02499e-07
-1.68238e-08
-9.5376e-08
-1.69353e-08
-8.82446e-08
-1.69496e-08
-8.11458e-08
-1.6865e-08
-7.41207e-08
-1.66809e-08
-6.72103e-08
-1.63972e-08
-6.04555e-08
-1.60149e-08
-5.3896e-08
-1.55355e-08
-4.75708e-08
-1.49617e-08
-4.15172e-08
-1.4297e-08
-3.57708e-08
-1.35458e-08
-3.03646e-08
-1.27133e-08
-2.53294e-08
-1.18059e-08
-2.06923e-08
-1.0831e-08
-1.64774e-08
-9.79707e-09
-1.27041e-08
-8.71377e-09
-9.38741e-09
-7.59227e-09
-6.53693e-09
-6.44537e-09
-4.15601e-09
-5.2879e-09
-2.24095e-09
-4.1372e-09
-7.7977e-10
-3.01376e-09
2.49039e-10
-1.94217e-09
8.78122e-10
-9.52236e-10
1.15305e-09
-8.04475e-11
1.13435e-09
6.28351e-10
8.99701e-10
1.11927e-09
5.46258e-10
1.32645e-09
1.94105e-10
1.17363e-09
5.73665e-10
-2.353e-12
-4.20344e-10
-1.92213e-10
-3.19998e-10
-7.00796e-10
4.17071e-10
-1.62082e-09
1.57812e-09
-3.01592e-09
3.01253e-09
-4.92564e-09
4.60645e-09
-7.36967e-09
6.27474e-09
-1.03518e-08
7.95511e-09
-1.38635e-08
9.60267e-09
-1.78866e-08
1.11857e-08
-2.2396e-08
1.26824e-08
-2.73617e-08
1.40782e-08
-3.27502e-08
1.53644e-08
-3.85259e-08
1.65361e-08
-4.46522e-08
1.75916e-08
-5.10921e-08
1.85313e-08
-5.78086e-08
1.9357e-08
-6.47654e-08
2.00717e-08
-7.19271e-08
2.06792e-08
-7.92593e-08
2.11833e-08
-8.67286e-08
2.15884e-08
-9.43031e-08
2.18985e-08
-1.01952e-07
2.21176e-08
-1.09644e-07
2.22497e-08
-1.17353e-07
2.22982e-08
-1.25049e-07
2.22663e-08
-1.32706e-07
2.21568e-08
-1.40297e-07
2.19722e-08
-1.47798e-07
2.17146e-08
-1.55183e-07
2.13858e-08
-1.62429e-07
2.09873e-08
-1.6951e-07
2.05202e-08
-1.76404e-07
1.99856e-08
-1.83088e-07
1.93842e-08
-1.89538e-07
1.87167e-08
-1.95732e-07
1.79837e-08
-2.01648e-07
1.71858e-08
-2.07263e-07
1.63235e-08
-2.12555e-07
1.53975e-08
-2.17503e-07
1.44086e-08
-2.22085e-07
1.3358e-08
-2.26282e-07
1.22467e-08
-2.30073e-07
1.10765e-08
-2.3344e-07
9.84916e-09
-2.36362e-07
8.56713e-09
-2.38825e-07
7.23314e-09
-2.4081e-07
5.85041e-09
-2.42303e-07
4.42267e-09
-2.43292e-07
2.95416e-09
-2.43763e-07
1.44968e-09
-2.43707e-07
-8.54577e-11
-2.43117e-07
-1.64537e-09
-2.41987e-07
-3.22364e-09
-2.40312e-07
-4.81333e-09
-2.38094e-07
-6.407e-09
-2.35332e-07
-7.99677e-09
-2.32033e-07
-9.57427e-09
-2.28203e-07
-1.11308e-08
-2.23853e-07
-1.26574e-08
-2.18997e-07
-1.41447e-08
-2.13652e-07
-1.55832e-08
-2.07838e-07
-1.69635e-08
-2.01577e-07
-1.8276e-08
-1.94897e-07
-1.95111e-08
-1.87826e-07
-2.06597e-08
-1.80397e-07
-2.17125e-08
-1.72645e-07
-2.26611e-08
-1.64608e-07
-2.34971e-08
-1.56326e-07
-2.42131e-08
-1.47843e-07
-2.4802e-08
-1.39203e-07
-2.52578e-08
-1.30451e-07
-2.55751e-08
-1.21637e-07
-2.57496e-08
-1.12809e-07
-2.5778e-08
-1.04016e-07
-2.56579e-08
-9.53081e-08
-2.53884e-08
-8.6736e-08
-2.49694e-08
-7.83485e-08
-2.44024e-08
-7.0194e-08
-2.36899e-08
-6.23197e-08
-2.2836e-08
-5.47707e-08
-2.1846e-08
-4.75899e-08
-2.07266e-08
-4.08173e-08
-1.94859e-08
-3.44898e-08
-1.81335e-08
-2.864e-08
-1.66808e-08
-2.32965e-08
-1.51406e-08
-1.84826e-08
-1.35277e-08
-1.4216e-08
-1.18589e-08
-1.05077e-08
-1.01536e-08
-7.3616e-09
-8.43399e-09
-4.77317e-09
-6.72564e-09
-2.72843e-09
-5.05849e-09
-1.20278e-09
-3.46782e-09
-1.59526e-10
-1.9955e-09
4.51672e-10
-6.91649e-10
6.96474e-10
3.83552e-10
6.57848e-10
1.15789e-09
4.38536e-10
1.54576e-09
1.65115e-10
1.44706e-09
7.38779e-10
-9.44604e-11
-3.25884e-10
-5.15092e-10
1.00632e-10
-1.36759e-09
1.26958e-09
-2.7297e-09
2.94023e-09
-4.65538e-09
4.9382e-09
-7.17781e-09
7.12889e-09
-1.03125e-08
9.4094e-09
-1.406e-08
1.17027e-08
-1.84092e-08
1.39518e-08
-2.33392e-08
1.61157e-08
-2.88221e-08
1.81652e-08
-3.48244e-08
2.00806e-08
-4.13092e-08
2.18492e-08
-4.82367e-08
2.34637e-08
-5.5566e-08
2.49209e-08
-6.32552e-08
2.62205e-08
-7.12627e-08
2.73645e-08
-7.9547e-08
2.83561e-08
-8.80677e-08
2.91999e-08
-9.67851e-08
2.99007e-08
-1.05661e-07
3.04639e-08
-1.14657e-07
3.08949e-08
-1.23738e-07
3.11989e-08
-1.3287e-07
3.13809e-08
-1.42017e-07
3.14455e-08
-1.51147e-07
3.13969e-08
-1.6023e-07
3.1239e-08
-1.69232e-07
3.0975e-08
-1.78126e-07
3.0608e-08
-1.8688e-07
3.01402e-08
-1.95467e-07
2.95738e-08
-2.03857e-07
2.89105e-08
-2.12023e-07
2.81517e-08
-2.19938e-07
2.72986e-08
-2.27573e-07
2.63522e-08
-2.34903e-07
2.53135e-08
-2.419e-07
2.41832e-08
-2.48539e-07
2.29625e-08
-2.54794e-07
2.16523e-08
-2.60639e-07
2.02539e-08
-2.6605e-07
1.8769e-08
-2.71003e-07
1.71994e-08
-2.75474e-07
1.55475e-08
-2.79441e-07
1.38161e-08
-2.82883e-07
1.20087e-08
-2.85779e-07
1.01291e-08
-2.8811e-07
8.1821e-09
-2.89861e-07
6.1729e-09
-2.91014e-07
4.10754e-09
-2.91557e-07
1.9928e-09
-2.91479e-07
-1.63843e-10
-2.9077e-07
-2.35412e-09
-2.89424e-07
-4.56906e-09
-2.87439e-07
-6.79896e-09
-2.84812e-07
-9.03345e-09
-2.81548e-07
-1.12615e-08
-2.7765e-07
-1.34716e-08
-2.7313e-07
-1.56516e-08
-2.67998e-07
-1.7789e-08
-2.62272e-07
-1.98708e-08
-2.55971e-07
-2.18842e-08
-2.49119e-07
-2.38158e-08
-2.41742e-07
-2.56524e-08
-2.33873e-07
-2.73809e-08
-2.25544e-07
-2.89884e-08
-2.16794e-07
-3.04626e-08
-2.07663e-07
-3.17915e-08
-1.98196e-07
-3.29638e-08
-1.8844e-07
-3.39691e-08
-1.78445e-07
-3.47978e-08
-1.68261e-07
-3.54415e-08
-1.57943e-07
-3.58928e-08
-1.47547e-07
-3.61459e-08
-1.37129e-07
-3.61961e-08
-1.26746e-07
-3.60405e-08
-1.16457e-07
-3.56775e-08
-1.06319e-07
-3.51074e-08
-9.63895e-08
-3.43321e-08
-8.6724e-08
-3.33554e-08
-7.73771e-08
-3.21829e-08
-6.84011e-08
-3.08221e-08
-5.98453e-08
-2.92823e-08
-5.17561e-08
-2.75751e-08
-4.41756e-08
-2.5714e-08
-3.71417e-08
-2.37147e-08
-3.0687e-08
-2.15953e-08
-2.48383e-08
-1.93764e-08
-1.96156e-08
-1.70815e-08
-1.5032e-08
-1.47373e-08
-1.10918e-08
-1.23742e-08
-7.7905e-09
-1.00269e-08
-5.11325e-09
-7.73575e-09
-3.0338e-09
-5.54726e-09
-1.51341e-09
-3.5159e-09
-4.99457e-10
-1.7056e-09
7.59059e-11
-1.91807e-10
2.97479e-10
9.36316e-10
2.69195e-10
1.57404e-09
1.17573e-10
1.59868e-09
8.56351e-10
-1.91697e-10
-1.34188e-10
-8.60661e-10
7.696e-10
-2.0842e-09
2.49312e-09
-3.92091e-09
4.77695e-09
-6.41137e-09
7.42867e-09
-9.57929e-09
1.02968e-08
-1.34333e-08
1.32634e-08
-1.7969e-08
1.62384e-08
-2.31711e-08
1.91539e-08
-2.90152e-08
2.19599e-08
-3.54701e-08
2.46201e-08
-4.24992e-08
2.71097e-08
-5.00619e-08
2.94118e-08
-5.81149e-08
3.15167e-08
-6.66133e-08
3.34193e-08
-7.55115e-08
3.51186e-08
-8.47633e-08
3.66163e-08
-9.43232e-08
3.7916e-08
-1.04146e-07
3.90227e-08
-1.14188e-07
3.99423e-08
-1.24405e-07
4.06813e-08
-1.34756e-07
4.12462e-08
-1.45201e-07
4.16433e-08
-1.55699e-07
4.18789e-08
-1.66212e-07
4.19588e-08
-1.76703e-07
4.18883e-08
-1.87136e-07
4.16722e-08
-1.97476e-07
4.13147e-08
-2.07688e-07
4.08196e-08
-2.17738e-07
4.01901e-08
-2.27593e-07
3.94289e-08
-2.3722e-07
3.85382e-08
-2.46589e-07
3.75199e-08
-2.55666e-07
3.63758e-08
-2.64421e-07
3.51072e-08
-2.72823e-07
3.37155e-08
-2.80841e-07
3.22019e-08
-2.88447e-07
3.0568e-08
-2.9561e-07
2.88153e-08
-3.02302e-07
2.69456e-08
-3.08494e-07
2.49613e-08
-3.1416e-07
2.28649e-08
-3.19272e-07
2.06599e-08
-3.23806e-07
1.835e-08
-3.27737e-07
1.594e-08
-3.31043e-07
1.34352e-08
-3.33703e-07
1.08419e-08
-3.35697e-07
8.16715e-09
-3.37009e-07
5.41908e-09
-3.37623e-07
2.6067e-09
-3.37527e-07
-2.6002e-10
-3.36711e-07
-3.17013e-09
-3.35168e-07
-6.11174e-09
-3.32895e-07
-9.07204e-09
-3.29891e-07
-1.20373e-08
-3.26159e-07
-1.49931e-08
-3.21707e-07
-1.79241e-08
-3.16544e-07
-2.08145e-08
-3.10685e-07
-2.36478e-08
-3.04149e-07
-2.64071e-08
-2.96958e-07
-2.90753e-08
-2.89139e-07
-3.16351e-08
-2.80722e-07
-3.40691e-08
-2.71742e-07
-3.63603e-08
-2.62239e-07
-3.84918e-08
-2.52254e-07
-4.04474e-08
-2.41834e-07
-4.22115e-08
-2.31029e-07
-4.37692e-08
-2.19891e-07
-4.51071e-08
-2.08476e-07
-4.62127e-08
-1.96843e-07
-4.70748e-08
-1.85051e-07
-4.76841e-08
-1.73164e-07
-4.80328e-08
-1.61246e-07
-4.81149e-08
-1.4936e-07
-4.79265e-08
-1.37571e-07
-4.74658e-08
-1.25946e-07
-4.67331e-08
-1.14547e-07
-4.57311e-08
-1.03437e-07
-4.44648e-08
-9.26787e-08
-4.29416e-08
-8.23292e-08
-4.11715e-08
-7.24446e-08
-3.9167e-08
-6.30765e-08
-3.69432e-08
-5.42724e-08
-3.45181e-08
-4.60746e-08
-3.19125e-08
-3.85196e-08
-2.91502e-08
-3.16376e-08
-2.62584e-08
-2.54514e-08
-2.32677e-08
-1.99758e-08
-2.0213e-08
-1.52164e-08
-1.71335e-08
-1.11693e-08
-1.4074e-08
-7.81986e-09
-1.10852e-08
-5.1415e-09
-8.22563e-09
-3.09506e-09
-5.56233e-09
-1.62764e-09
-3.17301e-09
-6.71499e-10
-1.14796e-09
-1.42741e-10
4.07554e-10
6.02443e-11
1.37106e-09
5.90856e-11
1.59984e-09
9.15436e-10
-2.90058e-10
1.55874e-10
-1.21527e-09
1.69481e-09
-2.8243e-09
4.10213e-09
-5.15468e-09
7.10735e-09
-8.23129e-09
1.05053e-08
-1.20661e-08
1.41316e-08
-1.66589e-08
1.78562e-08
-2.19986e-08
2.1578e-08
-2.80644e-08
2.52197e-08
-3.48276e-08
2.87231e-08
-4.22532e-08
3.20457e-08
-5.03009e-08
3.51573e-08
-5.89265e-08
3.80375e-08
-6.80835e-08
4.06737e-08
-7.77235e-08
4.30593e-08
-8.77969e-08
4.51921e-08
-9.82541e-08
4.70735e-08
-1.09046e-07
4.87075e-08
-1.20122e-07
5.00995e-08
-1.31436e-07
5.12563e-08
-1.4294e-07
5.21853e-08
-1.54588e-07
5.28942e-08
-1.66336e-07
5.33906e-08
-1.78139e-07
5.36818e-08
-1.89955e-07
5.37749e-08
-2.01743e-07
5.36762e-08
-2.13462e-07
5.33917e-08
-2.25074e-07
5.29264e-08
-2.36539e-07
5.22851e-08
-2.47821e-07
5.14716e-08
-2.58881e-07
5.04893e-08
-2.69684e-07
4.93412e-08
-2.80194e-07
4.80297e-08
-2.90375e-07
4.6557e-08
-3.00193e-07
4.4925e-08
-3.09613e-07
4.31355e-08
-3.18601e-07
4.11903e-08
-3.27125e-07
3.90915e-08
-3.35151e-07
3.68411e-08
-3.42647e-07
3.44417e-08
-3.49582e-07
3.18964e-08
-3.55926e-07
2.92088e-08
-3.61649e-07
2.63832e-08
-3.66724e-07
2.34247e-08
-3.71123e-07
2.03395e-08
-3.74822e-07
1.71345e-08
-3.77798e-07
1.38177e-08
-3.8003e-07
1.03984e-08
-3.81497e-07
6.88698e-09
-3.82186e-07
3.29487e-09
-3.8208e-07
-3.65152e-10
-3.81171e-07
-4.07915e-09
-3.79451e-07
-7.83201e-09
-3.76916e-07
-1.16075e-08
-3.73565e-07
-1.53881e-08
-3.69402e-07
-1.91557e-08
-3.64436e-07
-2.28909e-08
-3.58676e-07
-2.65736e-08
-3.52141e-07
-3.01831e-08
-3.4485e-07
-3.36982e-08
-3.36828e-07
-3.70971e-08
-3.28105e-07
-4.03581e-08
-3.18715e-07
-4.34594e-08
-3.08696e-07
-4.63795e-08
-2.9809e-07
-4.90971e-08
-2.86946e-07
-5.15919e-08
-2.75313e-07
-5.38442e-08
-2.63247e-07
-5.58355e-08
-2.50805e-07
-5.75487e-08
-2.3805e-07
-5.89681e-08
-2.25045e-07
-6.00799e-08
-2.11857e-07
-6.08722e-08
-1.98554e-07
-6.13351e-08
-1.85208e-07
-6.14614e-08
-1.71888e-07
-6.1246e-08
-1.58667e-07
-6.06868e-08
-1.45616e-07
-5.97842e-08
-1.32805e-07
-5.85417e-08
-1.20305e-07
-5.69656e-08
-1.08181e-07
-5.50653e-08
-9.64987e-08
-5.28537e-08
-8.53192e-08
-5.03464e-08
-7.46995e-08
-4.75629e-08
-6.46918e-08
-4.45258e-08
-5.53429e-08
-4.12615e-08
-4.66932e-08
-3.78e-08
-3.87761e-08
-3.41755e-08
-3.16173e-08
-3.04266e-08
-2.52337e-08
-2.65965e-08
-1.96331e-08
-2.27342e-08
-1.48127e-08
-1.88944e-08
-1.07588e-08
-1.51391e-08
-7.44591e-09
-1.15385e-08
-4.8358e-09
-8.17244e-09
-2.87683e-09
-5.13198e-09
-1.50317e-09
-2.52162e-09
-6.34001e-10
-4.61618e-10
-1.72602e-10
9.09659e-10
-5.33044e-12
1.43257e-09
9.10107e-10
-3.87434e-10
5.43309e-10
-1.57062e-09
2.878e-09
-3.57085e-09
6.10235e-09
-6.40412e-09
9.94062e-09
-1.00784e-08
1.41795e-08
-1.45924e-08
1.86456e-08
-1.99356e-08
2.31994e-08
-2.60887e-08
2.77312e-08
-3.30246e-08
3.21556e-08
-4.07093e-08
3.64078e-08
-4.9103e-08
4.04395e-08
-5.81617e-08
4.4216e-08
-6.78376e-08
4.77134e-08
-7.80805e-08
5.09166e-08
-8.88385e-08
5.38173e-08
-1.00059e-07
5.64125e-08
-1.11689e-07
5.87033e-08
-1.23675e-07
6.06935e-08
-1.35965e-07
6.23893e-08
-1.48507e-07
6.37983e-08
-1.6125e-07
6.49287e-08
-1.74145e-07
6.57893e-08
-1.87144e-07
6.6389e-08
-2.00198e-07
6.67362e-08
-2.13262e-07
6.68391e-08
-2.26291e-07
6.67053e-08
-2.39241e-07
6.63415e-08
-2.52069e-07
6.57541e-08
-2.64732e-07
6.49485e-08
-2.7719e-07
6.39293e-08
-2.89401e-07
6.27008e-08
-3.01327e-07
6.12665e-08
-3.12927e-07
5.96295e-08
-3.24162e-07
5.77924e-08
-3.34995e-07
5.57578e-08
-3.45387e-07
5.3528e-08
-3.55302e-07
5.11054e-08
-3.64704e-07
4.84926e-08
-3.73555e-07
4.56924e-08
-3.81821e-07
4.27082e-08
-3.89469e-07
3.95439e-08
-3.96464e-07
3.62041e-08
-4.02775e-07
3.26944e-08
-4.08372e-07
2.90213e-08
-4.13225e-07
2.51923e-08
-4.17307e-07
2.12164e-08
-4.20593e-07
1.71036e-08
-4.23059e-07
1.28653e-08
-4.24687e-07
8.51438e-09
-4.25457e-07
4.06511e-09
-4.25355e-07
-4.66743e-10
-4.24371e-07
-5.06399e-09
-4.22495e-07
-9.70801e-09
-4.19723e-07
-1.43788e-08
-4.16056e-07
-1.9055e-08
-4.11498e-07
-2.37141e-08
-4.06056e-07
-2.83325e-08
-3.99745e-07
-3.28855e-08
-3.9258e-07
-3.73478e-08
-3.84585e-07
-4.16933e-08
-3.75786e-07
-4.58956e-08
-3.66216e-07
-4.9928e-08
-3.55912e-07
-5.37638e-08
-3.44915e-07
-5.73767e-08
-3.33271e-07
-6.07409e-08
-3.21031e-07
-6.38314e-08
-3.08251e-07
-6.66242e-08
-2.9499e-07
-6.90967e-08
-2.81311e-07
-7.12279e-08
-2.6728e-07
-7.29988e-08
-2.52968e-07
-7.43924e-08
-2.38446e-07
-7.53941e-08
-2.23789e-07
-7.59921e-08
-2.09073e-07
-7.61773e-08
-1.94375e-07
-7.59438e-08
-1.79773e-07
-7.52887e-08
-1.65345e-07
-7.42127e-08
-1.51167e-07
-7.272e-08
-1.37314e-07
-7.08185e-08
-1.23859e-07
-6.85199e-08
-1.10873e-07
-6.58396e-08
-9.84223e-08
-6.27973e-08
-8.65687e-08
-5.94165e-08
-7.53694e-08
-5.57251e-08
-6.48754e-08
-5.17554e-08
-5.51313e-08
-4.75441e-08
-4.61738e-08
-4.31329e-08
-3.80318e-08
-3.85685e-08
-3.0725e-08
-3.39034e-08
-2.42632e-08
-2.91959e-08
-1.8646e-08
-2.45116e-08
-1.38615e-08
-1.99236e-08
-9.88604e-09
-1.5514e-08
-6.68354e-09
-1.13749e-08
-4.20491e-09
-7.61062e-09
-2.38766e-09
-4.33887e-09
-1.15556e-09
-1.69371e-09
-4.18501e-10
1.72592e-10
-7.24545e-11
1.08652e-09
8.37656e-10
-4.82685e-10
1.02599e-09
-1.92176e-09
4.31709e-09
-4.31305e-09
8.49363e-09
-7.65138e-09
1.32789e-08
-1.19273e-08
1.84555e-08
-1.71256e-08
2.38438e-08
-2.32243e-08
2.92981e-08
-3.0195e-08
3.47019e-08
-3.80032e-08
3.99638e-08
-4.66088e-08
4.50133e-08
-5.59669e-08
4.97976e-08
-6.60289e-08
5.4278e-08
-7.67433e-08
5.84277e-08
-8.80562e-08
6.22295e-08
-9.99123e-08
6.56735e-08
-1.12256e-07
6.8756e-08
-1.2503e-07
7.14776e-08
-1.38179e-07
7.38425e-08
-1.51647e-07
7.58574e-08
-1.65379e-07
7.75305e-08
-1.79322e-07
7.8871e-08
-1.93421e-07
7.98889e-08
-2.07626e-07
8.05941e-08
-2.21886e-07
8.09962e-08
-2.36152e-07
8.11045e-08
-2.50374e-07
8.09277e-08
-2.64506e-07
8.04738e-08
-2.78502e-07
7.97498e-08
-2.92315e-07
7.87621e-08
-3.05902e-07
7.75162e-08
-3.19219e-07
7.60172e-08
-3.32221e-07
7.42691e-08
-3.44868e-07
7.22757e-08
-3.57115e-07
7.00402e-08
-3.68923e-07
6.75659e-08
-3.80251e-07
6.48555e-08
-3.91058e-07
6.19122e-08
-4.01304e-07
5.87391e-08
-4.10952e-07
5.53399e-08
-4.19963e-07
5.17188e-08
-4.28299e-07
4.78807e-08
-4.35927e-07
4.38313e-08
-4.4281e-07
3.95776e-08
-4.48916e-07
3.51274e-08
-4.54214e-07
3.04903e-08
-4.58674e-07
2.56768e-08
-4.6227e-07
2.06992e-08
-4.64976e-07
1.55715e-08
-4.66771e-07
1.03091e-08
-4.67635e-07
4.92941e-09
-4.67553e-07
-5.48714e-10
-4.66513e-07
-6.10454e-09
-4.64505e-07
-1.17157e-08
-4.61526e-07
-1.73581e-08
-4.57574e-07
-2.30062e-08
-4.52655e-07
-2.86331e-08
-4.46778e-07
-3.42103e-08
-4.39955e-07
-3.97085e-08
-4.32205e-07
-4.50972e-08
-4.23553e-07
-5.03453e-08
-4.14028e-07
-5.54213e-08
-4.03662e-07
-6.02931e-08
-3.92497e-07
-6.49291e-08
-3.80576e-07
-6.92977e-08
-3.67949e-07
-7.3368e-08
-3.5467e-07
-7.71101e-08
-3.40799e-07
-8.04955e-08
-3.26399e-07
-8.34971e-08
-3.11537e-07
-8.60898e-08
-2.96285e-07
-8.82508e-08
-2.80717e-07
-8.99599e-08
-2.64912e-07
-9.11996e-08
-2.48948e-07
-9.19557e-08
-2.32908e-07
-9.22173e-08
-2.16875e-07
-9.19773e-08
-2.00931e-07
-9.12323e-08
-1.8516e-07
-8.99831e-08
-1.69646e-07
-8.82347e-08
-1.54468e-07
-8.59964e-08
-1.39706e-07
-8.32823e-08
-1.25434e-07
-8.01109e-08
-1.11726e-07
-7.65057e-08
-9.86476e-08
-7.24948e-08
-8.62612e-08
-6.81115e-08
-7.46222e-08
-6.33944e-08
-6.37792e-08
-5.83871e-08
-5.37729e-08
-5.31392e-08
-4.46354e-08
-4.7706e-08
-3.63896e-08
-4.21491e-08
-2.90484e-08
-3.65372e-08
-2.26139e-08
-3.09462e-08
-1.70769e-08
-2.54606e-08
-1.24167e-08
-2.01743e-08
-8.59993e-09
-1.51917e-08
-5.58123e-09
-1.06293e-08
-3.30243e-09
-6.61767e-09
-1.69296e-09
-3.30318e-09
-6.70185e-10
-8.50187e-10
-1.40276e-10
5.56624e-10
6.97382e-10
-5.75262e-10
1.60124e-09
-2.26589e-09
6.00772e-09
-5.04425e-09
1.1272e-08
-8.88488e-09
1.71196e-08
-1.37611e-08
2.33317e-08
-1.96432e-08
2.9726e-08
-2.64974e-08
3.61523e-08
-3.42854e-08
4.24899e-08
-4.29645e-08
4.86428e-08
-5.24877e-08
5.45366e-08
-6.28047e-08
6.01146e-08
-7.38619e-08
6.53352e-08
-8.56035e-08
7.01693e-08
-9.79719e-08
7.45979e-08
-1.10908e-07
7.861e-08
-1.24354e-07
8.22013e-08
-1.38248e-07
8.53723e-08
-1.52533e-07
8.81274e-08
-1.6715e-07
9.04738e-08
-1.8204e-07
9.24205e-08
-1.97146e-07
9.39777e-08
-2.12414e-07
9.51565e-08
-2.27788e-07
9.59678e-08
-2.43214e-07
9.64224e-08
-2.5864e-07
9.65309e-08
-2.74016e-07
9.63029e-08
-2.89289e-07
9.57474e-08
-3.04412e-07
9.48725e-08
-3.19335e-07
9.36854e-08
-3.34012e-07
9.21926e-08
-3.48394e-07
9.03996e-08
-3.62436e-07
8.83114e-08
-3.76093e-07
8.59323e-08
-3.89319e-07
8.32663e-08
-4.0207e-07
8.03171e-08
-4.14303e-07
7.70881e-08
-4.25974e-07
7.35832e-08
-4.37041e-07
6.98062e-08
-4.47462e-07
6.57616e-08
-4.57198e-07
6.14545e-08
-4.66208e-07
5.68909e-08
-4.74455e-07
5.20779e-08
-4.81901e-07
4.70235e-08
-4.88511e-07
4.17375e-08
-4.94252e-07
3.62311e-08
-4.99092e-07
3.05169e-08
-5.03002e-07
2.46097e-08
-5.05957e-07
1.85258e-08
-5.07931e-07
1.22837e-08
-5.08906e-07
5.90383e-09
-5.08863e-07
-5.91446e-10
-5.0779e-07
-7.1777e-09
-5.05677e-07
-1.38286e-08
-5.02519e-07
-2.05158e-08
-4.98316e-07
-2.72092e-08
-4.93072e-07
-3.38771e-08
-4.86796e-07
-4.04863e-08
-4.79503e-07
-4.70021e-08
-4.71211e-07
-5.33888e-08
-4.61946e-07
-5.961e-08
-4.51739e-07
-6.56284e-08
-4.40626e-07
-7.14068e-08
-4.28647e-07
-7.69076e-08
-4.15851e-07
-8.20941e-08
-4.02289e-07
-8.69299e-08
-3.88019e-07
-9.138e-08
-3.73104e-07
-9.54106e-08
-3.57611e-07
-9.89902e-08
-3.41611e-07
-1.02089e-07
-3.25181e-07
-1.04681e-07
-3.084e-07
-1.06741e-07
-2.91351e-07
-1.08249e-07
-2.74117e-07
-1.09189e-07
-2.56787e-07
-1.09548e-07
-2.39448e-07
-1.09316e-07
-2.2219e-07
-1.0849e-07
-2.05102e-07
-1.07071e-07
-1.88271e-07
-1.05065e-07
-1.71785e-07
-1.02483e-07
-1.55728e-07
-9.93399e-08
-1.4018e-07
-9.56587e-08
-1.25219e-07
-9.14666e-08
-1.10917e-07
-8.67965e-08
-9.73415e-08
-8.16873e-08
-8.45517e-08
-7.61842e-08
-7.26009e-08
-7.0338e-08
-6.15339e-08
-6.42063e-08
-5.13866e-08
-5.78532e-08
-4.21857e-08
-5.13501e-08
-3.39473e-08
-4.47755e-08
-2.6677e-08
-3.82165e-08
-2.03689e-08
-3.17686e-08
-1.50056e-08
-2.55375e-08
-1.05579e-08
-1.96394e-08
-6.98438e-09
-1.42028e-08
-4.23204e-09
-9.37001e-09
-2.23651e-09
-5.29871e-09
-9.22969e-10
-2.16373e-09
-2.07581e-10
-1.58759e-10
4.89801e-10
-6.64943e-10
2.26618e-09
-2.60149e-09
7.94427e-09
-5.76054e-09
1.4431e-08
-1.00974e-08
2.14565e-08
-1.55687e-08
2.8803e-08
-2.21302e-08
3.62874e-08
-2.97359e-08
4.3758e-08
-3.83371e-08
5.10911e-08
-4.78825e-08
5.81882e-08
-5.83179e-08
6.4972e-08
-6.95867e-08
7.13834e-08
-8.16302e-08
7.73787e-08
-9.43879e-08
8.2927e-08
-1.07798e-07
8.80083e-08
-1.21799e-07
9.26108e-08
-1.36328e-07
9.67299e-08
-1.51322e-07
1.00366e-07
-1.66719e-07
1.03525e-07
-1.82458e-07
1.06213e-07
-1.98478e-07
1.0844e-07
-2.14719e-07
1.10219e-07
-2.31123e-07
1.11561e-07
-2.47633e-07
1.12478e-07
-2.64193e-07
1.12982e-07
-2.80746e-07
1.13084e-07
-2.97239e-07
1.12796e-07
-3.1362e-07
1.12128e-07
-3.29835e-07
1.11088e-07
-3.45835e-07
1.09685e-07
-3.61568e-07
1.07925e-07
-3.76984e-07
1.05816e-07
-3.92036e-07
1.03363e-07
-4.06674e-07
1.0057e-07
-4.20851e-07
9.74433e-08
-4.3452e-07
9.3986e-08
-4.47634e-07
9.02027e-08
-4.60149e-07
8.60977e-08
-4.72018e-07
8.16757e-08
-4.83199e-07
7.69421e-08
-4.93647e-07
7.19029e-08
-5.03322e-07
6.65653e-08
-5.12181e-07
6.09375e-08
-5.20187e-07
5.50292e-08
-5.27301e-07
4.88518e-08
-5.33489e-07
4.24184e-08
-5.38715e-07
3.57438e-08
-5.42951e-07
2.88453e-08
-5.46167e-07
2.17418e-08
-5.48338e-07
1.4455e-08
-5.49443e-07
7.00845e-09
-5.49463e-07
-5.71783e-10
-5.48383e-07
-8.2574e-09
-5.46194e-07
-1.60178e-08
-5.42889e-07
-2.38203e-08
-5.38468e-07
-3.163e-08
-5.32935e-07
-3.94102e-08
-5.26299e-07
-4.71225e-08
-5.18574e-07
-5.47267e-08
-5.09782e-07
-6.21817e-08
-4.99946e-07