/*--------------------------------*- C++ -*----------------------------------*\
| =========                 |                                                 |
| \\      /  F ield         | OpenFOAM: The Open Source CFD Toolbox           |
|  \\    /   O peration     | Version:  2512                                  |
|   \\  /    A nd           | Website:  www.openfoam.com                      |
|    \\/     M anipulation  |                                                 |
\*---------------------------------------------------------------------------*/
FoamFile
{
    version     2.0;
    format      ascii;
    arch        "LSB;label=32;scalar=64";
    class       volScalarField;
    location    "0.06";
    object      p;
}
// * * * * * * * * * * * * * * * * * * * * * * * * * * * * * * * * * * * * * //

dimensions      [0 2 -2 0 0 0 0];

internalField   nonuniform List<scalar> 
10000
(
8.00212e-09
-5.04176e-05
-0.000144594
-0.00025516
-0.000366094
-0.000474844
-0.000578234
-0.000673525
-0.000758478
-0.000831256
-0.000890423
-0.000935099
-0.00096486
-0.000979439
-0.000978571
-0.000962098
-0.000930113
-0.000882912
-0.000820813
-0.000744083
-0.000652976
-0.000547815
-0.000428992
-0.000296922
-0.000151998
5.43487e-06
0.00017506
0.000356547
0.000549521
0.000753595
0.000968405
0.00119363
0.00142896
0.00167407
0.00192859
0.00219215
0.00246436
0.00274486
0.00303329
0.00332924
0.00363228
0.00394197
0.00425783
0.00457942
0.00490624
0.0052378
0.00557358
0.00591304
0.00625563
0.00660079
0.00694798
0.0072966
0.0076461
0.00799589
0.00834537
0.00869395
0.00904102
0.009386
0.00972828
0.0100673
0.0104023
0.0107329
0.0110582
0.0113778
0.0116909
0.0119969
0.0122952
0.0125852
0.0128661
0.0131374
0.0133984
0.0136483
0.0138868
0.014113
0.0143264
0.0145265
0.0147126
0.0148842
0.0150406
0.0151816
0.0153065
0.0154149
0.0155066
0.0155813
0.0156387
0.0156787
0.0157015
0.0157072
0.0156964
0.0156696
0.015628
0.015573
0.0155066
0.0154314
0.0153511
0.0152699
0.0151938
0.0151303
0.0150887
0.0150757
-2.60136e-05
-7.37123e-05
-0.000149676
-0.000238455
-0.000330441
-0.000421536
-0.000508618
-0.000589178
-0.00066116
-0.000722823
-0.000772718
-0.000809755
-0.000833266
-0.000842872
-0.000838294
-0.000819306
-0.000785812
-0.000737892
-0.000675744
-0.000599606
-0.00050971
-0.000406283
-0.000289587
-0.000159958
-1.77714e-05
0.000136623
0.000302926
0.000480852
0.000670085
0.000870261
0.00108101
0.00130201
0.00153296
0.00177354
0.0020234
0.00228217
0.00254946
0.00282494
0.00310822
0.00339891
0.00369658
0.00400078
0.00431104
0.00462692
0.00494797
0.00527367
0.00560349
0.0059369
0.00627336
0.00661233
0.00695328
0.00729563
0.0076388
0.00798222
0.0083253
0.00866746
0.00900812
0.00934669
0.00968258
0.0100152
0.0103439
0.0106681
0.0109872
0.0113005
0.0116075
0.0119074
0.0121998
0.0124838
0.012759
0.0130247
0.0132802
0.0135249
0.0137583
0.0139797
0.0141887
0.0143845
0.0145668
0.014735
0.0148885
0.015027
0.0151501
0.0152575
0.0153489
0.0154241
0.0154831
0.0155258
0.0155525
0.0155634
0.0155592
0.0155406
0.0155088
0.0154653
0.0154121
0.0153516
0.0152869
0.015222
0.0151614
0.0151105
0.0150761
0.0150631
-4.1837e-05
-8.44639e-05
-0.000146314
-0.000220214
-0.000298934
-0.000377828
-0.000453621
-0.000523772
-0.000586292
-0.000639617
-0.000682418
-0.000713539
-0.000732142
-0.000737726
-0.00073001
-0.000708788
-0.00067388
-0.000625198
-0.000562823
-0.000486959
-0.00039783
-0.000295617
-0.000180501
-5.27373e-05
8.73375e-05
0.000239385
0.000403115
0.000578262
0.000764535
0.000961608
0.00116914
0.0013868
0.00161429
0.0018513
0.00209746
0.00235241
0.00261581
0.0028873
0.0031665
0.00345302
0.00374641
0.00404624
0.00435204
0.00466339
0.00497982
0.00530085
0.00562593
0.00595452
0.0062861
0.00662015
0.00695615
0.00729353
0.00763173
0.00797014
0.00830821
0.00864536
0.00898101
0.0093146
0.00964554
0.00997322
0.010297
0.0106164
0.0109306
0.0112391
0.0115413
0.0118365
0.0121243
0.0124038
0.0126746
0.0129359
0.0131872
0.0134279
0.0136574
0.0138752
0.0140807
0.0142735
0.0144529
0.0146186
0.01477
0.0149069
0.0150288
0.0151356
0.015227
0.0153029
0.0153633
0.0154083
0.015438
0.015453
0.0154539
0.0154414
0.0154167
0.0153812
0.0153369
0.015286
0.015231
0.0151754
0.0151226
0.0150769
0.0150425
0.0150226
-3.19445e-05
-7.64249e-05
-0.000133245
-0.000198965
-0.000269326
-0.000340137
-0.000408239
-0.000471137
-0.000526858
-0.000573929
-0.000611174
-0.000637575
-0.000652255
-0.000654587
-0.000644224
-0.000620981
-0.000584691
-0.000535213
-0.000472534
-0.000396777
-0.000308118
-0.000206728
-9.2785e-05
3.34963e-05
0.000171856
0.000322015
0.000483696
0.000656616
0.000840488
0.00103501
0.00123989
0.00145483
0.00167951
0.00191359
0.00215672
0.00240856
0.00266877
0.002937
0.00321286
0.00349594
0.00378581
0.00408204
0.00438418
0.00469179
0.00500442
0.00532158
0.00564274
0.00596737
0.00629495
0.00662498
0.00695693
0.00729027
0.00762442
0.00795879
0.00829283
0.00862596
0.00895763
0.00928727
0.00961428
0.00993805
0.010258
0.0105734
0.0108838
0.0111885
0.011487
0.0117786
0.0120626
0.0123386
0.0126059
0.0128638
0.0131118
0.0133493
0.0135758
0.0137907
0.0139936
0.014184
0.0143613
0.0145251
0.0146751
0.0148108
0.0149321
0.0150386
0.0151302
0.0152068
0.0152685
0.0153154
0.0153478
0.015366
0.0153706
0.0153626
0.015343
0.0153131
0.0152746
0.0152294
0.0151799
0.0151285
0.0150784
0.0150326
0.014993
0.0149605
1.81489e-06
-5.25505e-05
-0.000111051
-0.000173676
-0.000239385
-0.000304849
-0.000367328
-0.000424709
-0.000475181
-0.000517276
-0.0005499
-0.000572202
-0.000583416
-0.000582903
-0.000570227
-0.000545133
-0.000507469
-0.00045714
-0.000394106
-0.000318392
-0.00023009
-0.000129348
-1.63594e-05
0.000108666
0.000245522
0.000394001
0.000553862
0.000724819
0.000906573
0.00109885
0.00130138
0.00151388
0.00173605
0.00196754
0.00220798
0.00245706
0.00271444
0.00297977
0.00325265
0.00353266
0.00381938
0.00411239
0.00441126
0.00471555
0.00502479
0.00533849
0.00565614
0.00597723
0.00630125
0.00662771
0.0069561
0.00728587
0.00761646
0.00794729
0.00827781
0.00860747
0.00893571
0.00926194
0.00958557
0.00990599
0.0102226
0.0105347
0.0108418
0.0111433
0.0114385
0.0117269
0.0120079
0.0122808
0.012545
0.0128
0.0130452
0.01328
0.013504
0.0137166
0.0139173
0.0141057
0.0142813
0.0144437
0.0145925
0.0147274
0.0148481
0.0149545
0.0150465
0.0151239
0.0151868
0.0152354
0.0152699
0.0152908
0.0152986
0.0152942
0.0152784
0.0152526
0.0152181
0.0151766
0.01513
0.0150804
0.01503
0.0149813
0.0149337
0.0148859
4.79887e-05
-1.90046e-05
-8.27871e-05
-0.000145903
-0.000210072
-0.000272701
-0.000331534
-0.000384944
-0.000431466
-0.000469766
-0.000498779
-0.000517709
-0.000525938
-0.000522936
-0.000508249
-0.000481542
-0.000442635
-0.000391464
-0.000328007
-0.000252247
-0.000164211
-6.40088e-05
4.81846e-05
0.000172174
0.000307778
0.000454822
0.00061309
0.000782319
0.000962232
0.00115257
0.00135308
0.00156347
0.00178345
0.00201266
0.00225077
0.00249745
0.00275238
0.00301518
0.00328546
0.0035628
0.00384678
0.00413698
0.004433
0.00473438
0.00504066
0.00535135
0.00566594
0.00598395
0.0063049
0.0066283
0.00695363
0.00728035
0.00760791
0.00793573
0.00826329
0.00859003
0.00891539
0.00923878
0.00955959
0.00987721
0.010191
0.0105004
0.0108048
0.0111036
0.0113962
0.011682
0.0119603
0.0122307
0.0124925
0.012745
0.0129879
0.0132206
0.0134425
0.0136532
0.0138522
0.014039
0.0142133
0.0143746
0.0145225
0.0146568
0.0147773
0.0148837
0.0149761
0.0150542
0.0151182
0.0151682
0.0152046
0.0152276
0.0152378
0.015236
0.015223
0.0151999
0.0151679
0.0151284
0.0150829
0.0150329
0.0149803
0.0149269
0.0148699
0.0148061
9.91173e-05
1.87541e-05
-5.21537e-05
-0.000118018
-0.000182828
-0.000244692
-0.000301718
-0.000352639
-0.000396371
-0.00043187
-0.000458175
-0.000474514
-0.000480341
-0.00047523
-0.000458784
-0.000430678
-0.000390712
-0.000338795
-0.000274889
-0.000198982
-0.0001111
-1.133e-05
0.0001002
0.000223342
0.000357937
0.000503807
0.000660739
0.000828499
0.00100685
0.00119556
0.00139437
0.001603
0.00182112
0.00204841
0.00228455
0.00252922
0.00278208
0.00304275
0.00331084
0.00358591
0.00386757
0.00415542
0.00444903
0.00474796
0.00505175
0.00535991
0.00567194
0.00598739
0.00630579
0.00662666
0.00694949
0.00727372
0.00759881
0.00792421
0.00824938
0.00857378
0.00889685
0.00921798
0.00953655
0.00985195
0.0101636
0.0104708
0.0107731
0.0110697
0.0113602
0.011644
0.0119203
0.0121887
0.0124485
0.0126993
0.0129404
0.0131714
0.0133918
0.0136011
0.0137988
0.0139845
0.0141578
0.0143183
0.0144657
0.0145997
0.0147201
0.0148266
0.0149193
0.0149981
0.015063
0.0151142
0.0151519
0.0151765
0.0151885
0.0151884
0.0151772
0.0151557
0.0151248
0.0150858
0.0150398
0.014988
0.0149318
0.0148726
0.0148057
0.0147261
0.000149898
5.63512e-05
-2.25043e-05
-9.24418e-05
-0.000159299
-0.000221812
-0.00027844
-0.000328178
-0.000370192
-0.000403719
-0.000428024
-0.000442443
-0.000446444
-0.000439628
-0.000421686
-0.000392371
-0.000351495
-0.000298929
-0.000234601
-0.000158501
-7.0677e-05
2.87866e-05
0.000139802
0.000262271
0.000396057
0.000540978
0.000696826
0.00086339
0.00104047
0.00122785
0.00142527
0.00163243
0.00184903
0.00207474
0.00230927
0.0025523
0.00280348
0.00306241
0.00332868
0.0036019
0.00388168
0.00416761
0.00445927
0.00475621
0.00505797
0.00536408
0.00567408
0.00598751
0.0063039
0.00662279
0.00694366
0.00726596
0.00758915
0.00791271
0.00823608
0.00855872
0.00888007
0.0091995
0.0095164
0.00983014
0.0101401
0.0104458
0.0107464
0.0110416
0.0113306
0.0116128
0.0118877
0.0121546
0.0124131
0.0126626
0.0129025
0.0131324
0.0133517
0.0135601
0.013757
0.013942
0.0141147
0.0142747
0.0144218
0.0145556
0.014676
0.0147828
0.0148759
0.0149552
0.0150208
0.0150728
0.0151115
0.0151372
0.0151502
0.0151512
0.0151409
0.0151199
0.0150892
0.0150496
0.0150021
0.0149473
0.0148867
0.0148212
0.0147444
0.0146503
0.000196364
9.04016e-05
3.45694e-06
-7.13295e-05
-0.000141184
-0.000205271
-0.000262449
-0.000311989
-0.000353216
-0.000385543
-0.000408461
-0.000421478
-0.000424116
-0.000415994
-0.00039686
-0.000366535
-0.000324861
-0.000271705
-0.000206985
-0.000130691
-4.28714e-05
5.64046e-05
0.000167072
0.000289048
0.000422207
0.000566378
0.000721374
0.00088701
0.0010631
0.00124944
0.00144575
0.00165176
0.00186714
0.00209163
0.0023249
0.00256664
0.00281649
0.00307404
0.0033389
0.00361067
0.00388898
0.00417344
0.00446359
0.00475901
0.00505922
0.0053638
0.00567228
0.00598423
0.00629918
0.00661664
0.00693612
0.00725705
0.00757893
0.0079012
0.00822335
0.00854481
0.00886499
0.00918328
0.00949906
0.0098117
0.0101206
0.0104252
0.0107249
0.011019
0.011307
0.0115883
0.0118623
0.0121284
0.0123861
0.0126348
0.012874
0.0131033
0.0133221
0.0135299
0.0137264
0.0139111
0.0140835
0.0142434
0.0143904
0.0145243
0.0146448
0.0147518
0.0148452
0.014925
0.0149911
0.0150438
0.015083
0.0151093
0.0151229
0.0151244
0.0151142
0.0150931
0.0150617
0.0150207
0.0149708
0.0149126
0.0148471
0.0147751
0.014689
0.0145816
0.000235464
0.000118199
2.34824e-05
-5.64773e-05
-0.000129951
-0.00019629
-0.000254663
-0.000304667
-0.00034581
-0.000377622
-0.000399724
-0.000411769
-0.0004134
-0.000404312
-0.000384285
-0.000353157
-0.000310796
-0.000257096
-0.000192004
-0.000115515
-2.76552e-05
7.1537e-05
0.000182006
0.000303662
0.000436373
0.000579992
0.000734365
0.000899331
0.00107471
0.00126027
0.00145576
0.00166089
0.00187539
0.00209897
0.00233133
0.00257212
0.00282099
0.00307753
0.00334135
0.00361209
0.00388937
0.00417277
0.00446188
0.00475624
0.00505541
0.00535896
0.00566646
0.00597748
0.00629153
0.00660814
0.00692678
0.00724693
0.00756806
0.00788964
0.00821112
0.00853195
0.00885153
0.00916923
0.00948443
0.00979652
0.0101049
0.010409
0.0107082
0.0110019
0.0112895
0.0115704
0.011844
0.0121098
0.0123672
0.0126157
0.0128548
0.0130839
0.0133026
0.0135104
0.0137069
0.0138916
0.0140641
0.0142241
0.0143713
0.0145054
0.0146261
0.0147334
0.0148272
0.0149073
0.0149738
0.0150268
0.0150664
0.0150929
0.0151066
0.015108
0.0150975
0.0150756
0.015043
0.0150001
0.0149474
0.0148853
0.0148148
0.0147365
0.0146417
0.0145224
0.00026502
0.00013757
3.56134e-05
-4.94492e-05
-0.000126826
-0.00019591
-0.000255972
-0.000306897
-0.000348446
-0.000380265
-0.000402036
-0.000413502
-0.000414448
-0.000404672
-0.000383986
-0.000352234
-0.000309303
-0.000255128
-0.000189688
-0.000112982
-2.50147e-05
7.41945e-05
0.00018459
0.000306072
0.000438512
0.000581786
0.000735768
0.000900309
0.00107522
0.00126027
0.00145521
0.00165976
0.00187367
0.00209667
0.00232844
0.00256862
0.00281684
0.00307273
0.00333591
0.00360603
0.00388269
0.00416549
0.00445399
0.00474777
0.0050464
0.00534947
0.00565654
0.00596717
0.00628088
0.00659719
0.00691557
0.0072355
0.00755645
0.00787789
0.00819928
0.00852003
0.00883955
0.0091572
0.00947238
0.00978447
0.0100929
0.010397
0.0106963
0.0109901
0.0112779
0.0115589
0.0118328
0.0120988
0.0123565
0.0126053
0.0128447
0.0130741
0.0132932
0.0135014
0.0136983
0.0138833
0.0140562
0.0142166
0.0143642
0.0144986
0.0146198
0.0147274
0.0148215
0.0149019
0.0149687
0.0150218
0.0150615
0.015088
0.0151016
0.0151025
0.0150912
0.0150682
0.0150339
0.0149886
0.0149329
0.0148668
0.0147913
0.0147069
0.0146042
0.0144743
0.00028359
0.000146922
3.82538e-05
-5.16702e-05
-0.000132938
-0.000205001
-0.000267131
-0.000319362
-0.000361664
-0.000393836
-0.000415637
-0.000426885
-0.000427456
-0.000417226
-0.000396052
-0.00036381
-0.00032042
-0.000265851
-0.000200092
-0.000123135
-3.49782e-05
6.43481e-05
0.00017478
0.000296222
0.000428566
0.000571706
0.000725527
0.000889876
0.00106456
0.00124935
0.001444
0.00164827
0.0018619
0.00208463
0.00231611
0.002556
0.00280393
0.00305954
0.00332247
0.00359236
0.00386883
0.00415147
0.00443984
0.00473353
0.00503213
0.00533523
0.00564241
0.0059532
0.00626713
0.00658369
0.00690236
0.00722264
0.00754397
0.00786584
0.00818767
0.0085089
0.00882889
0.00914704
0.00946273
0.00977536
0.0100843
0.0103891
0.010689
0.0109835
0.0112719
0.0115537
0.0118283
0.0120951
0.0123536
0.0126032
0.0128434
0.0130737
0.0132936
0.0135026
0.0137002
0.013886
0.0140596
0.0142206
0.0143688
0.0145038
0.0146254
0.0147336
0.014828
0.0149087
0.0149757
0.0150289
0.0150686
0.0150949
0.015108
0.0151082
0.0150959
0.0150714
0.0150351
0.0149874
0.0149284
0.0148583
0.0147779
0.0146879
0.0145779
0.0144386
0.000290151
0.000145149
3.02365e-05
-6.43169e-05
-0.000149329
-0.000224391
-0.000288816
-0.00034266
-0.000385987
-0.000418754
-0.000440853
-0.000452174
-0.000452632
-0.000442144
-0.000420627
-0.000388011
-0.00034426
-0.000289358
-0.000223289
-0.00014604
-5.76241e-05
4.19106e-05
0.000152491
0.000274036
0.000406461
0.000549673
0.000703552
0.000867932
0.00104262
0.00122739
0.00142203
0.00162631
0.00183998
0.00206273
0.00229424
0.00253416
0.00278214
0.00303785
0.00330093
0.00357101
0.00384771
0.00413063
0.00441934
0.00471343
0.00501252
0.0053162
0.00562402
0.00593551
0.00625018
0.00656754
0.00688706
0.00720822
0.00753049
0.00785331
0.00817614
0.00849836
0.00881937
0.00913855
0.00945529
0.00976902
0.0100791
0.0103851
0.0106862
0.0109819
0.0112716
0.0115547
0.0118305
0.0120987
0.0123584
0.0126094
0.0128509
0.0130825
0.0133036
0.0135138
0.0137125
0.0138994
0.014074
0.0142359
0.0143849
0.0145207
0.014643
0.0147517
0.0148466
0.0149277
0.0149949
0.0150482
0.0150878
0.0151137
0.0151262
0.0151256
0.0151121
0.0150859
0.0150475
0.0149971
0.0149348
0.0148607
0.0147757
0.0146803
0.0145637
0.0144161
0.000283833
0.000131393
1.07278e-05
-8.82538e-05
-0.000176898
-0.000254907
-0.000321684
-0.000377313
-0.00042189
-0.000455472
-0.000478081
-0.000489682
-0.000490214
-0.000479629
-0.000457905
-0.000425029
-0.000380993
-0.000325784
-0.000259389
-0.000181808
-9.30746e-05
6.75158e-06
0.000117601
0.000239407
0.000372098
0.000515581
0.000669723
0.000834352
0.00100928
0.0011943
0.00138921
0.00159379
0.00180777
0.00203085
0.0022627
0.00250299
0.0027514
0.00300759
0.00327121
0.0035419
0.00381927
0.00410292
0.00439245
0.00468746
0.00498755
0.00529232
0.0056013
0.00591401
0.00622996
0.00654865
0.00686954
0.00719213
0.00751586
0.00784018
0.00816451
0.00848826
0.00881081
0.00913156
0.00944992
0.00976529
0.0100771
0.0103847
0.0106876
0.0109851
0.0112766
0.0115615
0.0118392
0.0121092
0.0123708
0.0126236
0.0128669
0.0131002
0.013323
0.0135347
0.0137349
0.0139232
0.0140991
0.0142623
0.0144124
0.0145492
0.0146724
0.0147818
0.0148774
0.0149589
0.0150263
0.0150797
0.0151191
0.0151447
0.0151566
0.0151549
0.0151401
0.0151122
0.0150715
0.0150183
0.0149527
0.0148747
0.0147853
0.0146848
0.0145622
0.0144072
0.000263899
0.000104887
-2.09847e-05
-0.000124163
-0.00021637
-0.000297282
-0.00036638
-0.000423855
-0.000469845
-0.000504443
-0.000527736
-0.000539754
-0.000540489
-0.000529941
-0.000508135
-0.000475093
-0.000430818
-0.000375304
-0.000308555
-0.000230601
-0.000141491
-4.12822e-05
6.99683e-05
0.000192203
0.000325346
0.000469293
0.0006239
0.000788997
0.000964408
0.00114995
0.00134542
0.00155059
0.00176518
0.00198889
0.00222141
0.00246243
0.00271163
0.00296869
0.00323327
0.00350499
0.00378348
0.00406833
0.00435916
0.00465558
0.00495719
0.00526356
0.00557421
0.00588867
0.00620641
0.00652694
0.00684974
0.00717427
0.00749998
0.0078263
0.00815267
0.00847846
0.00880309
0.00912596
0.00944647
0.00976405
0.0100781
0.010388
0.0106933
0.0109931
0.011287
0.0115743
0.0118544
0.0121267
0.0123906
0.0126457
0.0128912
0.0131267
0.0133515
0.0135653
0.0137674
0.0139574
0.014135
0.0142997
0.0144512
0.0145893
0.0147136
0.0148239
0.0149202
0.0150023
0.0150701
0.0151236
0.0151629
0.0151881
0.0151992
0.0151966
0.0151803
0.0151505
0.0151076
0.0150516
0.0149827
0.0149009
0.0148071
0.014702
0.0145738
0.0144122
0.000229842
6.496e-05
-6.56068e-05
-0.000172681
-0.000268328
-0.000352107
-0.000423514
-0.00048286
-0.000530356
-0.000566106
-0.000590209
-0.000602751
-0.000603796
-0.000593397
-0.000571604
-0.00053845
-0.000493951
-0.000438122
-0.000370996
-0.000292623
-0.00020306
-0.000102356
9.44168e-06
0.000132275
0.000266051
0.000410651
0.00056593
0.000731729
0.000907887
0.00109423
0.00129054
0.00149658
0.00171208
0.00193675
0.00217028
0.00241239
0.00266278
0.00292112
0.00318707
0.00346025
0.0037403
0.00402683
0.00431946
0.00461779
0.00492142
0.00522989
0.00554272
0.00585941
0.00617945
0.00650234
0.00682755
0.00715453
0.00748274
0.00781158
0.00814049
0.00846887
0.00879612
0.00912165
0.00944488
0.00976524
0.0100821
0.0103949
0.010703
0.0110058
0.0113026
0.0115928
0.0118758
0.012151
0.0124178
0.0126756
0.0129239
0.0131619
0.0133893
0.0136054
0.0138098
0.014002
0.0141815
0.0143481
0.0145013
0.0146409
0.0147665
0.014878
0.0149753
0.015058
0.0151263
0.01518
0.0152192
0.015244
0.0152544
0.0152506
0.0152328
0.0152012
0.0151559
0.0150971
0.015025
0.0149395
0.0148416
0.014732
0.0145987
0.014431
0.000181398
1.11247e-05
-0.000123763
-0.000234419
-0.000333302
-0.000419897
-0.000493637
-0.000554886
-0.000603927
-0.000640891
-0.000665889
-0.000679051
-0.000680503
-0.000670336
-0.000648607
-0.000615356
-0.000570628
-0.00051447
-0.000446938
-0.000368089
-0.000277975
-0.000176642
-6.41408e-05
5.94568e-05
0.000194043
0.000339492
0.000495663
0.000662411
0.000839582
0.001027
0.00122443
0.00143164
0.00164836
0.00187432
0.00210923
0.00235281
0.00260478
0.00286482
0.00313255
0.00340764
0.00368971
0.0039784
0.00427331
0.00457404
0.00488017
0.00519123
0.00550672
0.00582615
0.00614899
0.00647473
0.00680286
0.00713281
0.00746402
0.00779591
0.0081279
0.0084594
0.00878983
0.0091186
0.00944513
0.00976884
0.0100891
0.0104054
0.0107169
0.0110232
0.0113234
0.0116171
0.0119035
0.0121821
0.0124523
0.0127134
0.0129648
0.0132059
0.0134362
0.0136551
0.0138621
0.0140568
0.0142387
0.0144075
0.0145627
0.0147041
0.0148313
0.0149442
0.0150425
0.0151262
0.015195
0.015249
0.0152881
0.0153125
0.0153222
0.0153173
0.0152979
0.0152644
0.0152167
0.0151551
0.0150798
0.0149907
0.0148888
0.0147751
0.014637
0.0144638
0.00011841
-5.69222e-05
-0.000195896
-0.000309909
-0.000411831
-0.000501159
-0.000577245
-0.000640424
-0.000691019
-0.00072922
-0.000755176
-0.000769044
-0.000770974
-0.000761077
-0.000739423
-0.000706075
-0.000661108
-0.000604598
-0.000536612
-0.000457203
-0.00036642
-0.000264315
-0.000150953
-2.64266e-05
0.000109149
0.00025565
0.000412949
0.000580904
0.000759357
0.00094812
0.00114697
0.00135564
0.00157391
0.0018015
0.00203816
0.00228361
0.00253756
0.00279969
0.00306965
0.00334708
0.00363163
0.00392294
0.0042206
0.00452421
0.00483332
0.00514744
0.00546608
0.00578872
0.00611485
0.00644396
0.0067755
0.00710893
0.00744367
0.00777914
0.00811477
0.00844997
0.00878416
0.00911676
0.00944719
0.00977485
0.0100991
0.0104194
0.010735
0.0110453
0.0113496
0.0116472
0.0119376
0.0122201
0.0124941
0.0127589
0.0130139
0.0132586
0.0134922
0.0137144
0.0139245
0.0141221
0.0143067
0.014478
0.0146355
0.0147789
0.014908
0.0150225
0.0151221
0.0152067
0.0152762
0.0153305
0.0153697
0.0153937
0.0154026
0.0153965
0.0153757
0.0153401
0.0152901
0.0152257
0.0151472
0.0150547
0.014949
0.0148313
0.0146888
0.0145104
4.06874e-05
-0.000139413
-0.000282306
-0.000399581
-0.000504427
-0.000596383
-0.000674773
-0.000739886
-0.00079205
-0.000831512
-0.000858472
-0.000873099
-0.000875538
-0.000865912
-0.000844327
-0.000810875
-0.000765654
-0.000708751
-0.000640235
-0.000560161
-0.000468579
-0.000365558
-0.000251184
-0.000125562
1.11931e-05
0.000158966
0.000317634
0.000487054
0.000667057
0.000857442
0.00105798
0.00126844
0.00148858
0.00171817
0.00195696
0.00220466
0.002461
0.00272563
0.00299823
0.00327844
0.00356593
0.00386032
0.0041612
0.00446814
0.00478067
0.00509832
0.00542057
0.0057469
0.00607681
0.00640978
0.00674526
0.00708269
0.0074215
0.00776111
0.00810095
0.00844044
0.008779
0.00911605
0.009451
0.00978323
0.0101121
0.010437
0.0107572
0.0110721
0.011381
0.0116832
0.0119781
0.012265
0.0125433
0.0128123
0.0130714
0.01332
0.0135575
0.0137833
0.0139969
0.0141978
0.0143855
0.0145596
0.0147198
0.0148656
0.0149967
0.0151129
0.015214
0.0152997
0.01537
0.0154247
0.0154639
0.0154875
0.0154957
0.0154885
0.0154661
0.0154286
0.0153762
0.0153092
0.0152276
0.0151317
0.0150225
0.0149009
0.0147542
0.014571
-5.20269e-05
-0.000236626
-0.00038328
-0.000503768
-0.000611497
-0.000705995
-0.000786613
-0.000853645
-0.000907406
-0.000948165
-0.000976152
-0.000991545
-0.000994489
-0.000985127
-0.000963599
-0.000930029
-0.000884522
-0.000827161
-0.000758019
-0.000677157
-0.000584645
-0.000480572
-0.000365036
-0.000238144
-0.000100007
4.92658e-05
0.000209548
0.000380685
0.000562495
0.000754775
0.000957304
0.00116986
0.00139223
0.00162419
0.00186547
0.00211581
0.00237492
0.00264246
0.00291812
0.00320155
0.00349241
0.00379032
0.00409485
0.00440555
0.00472196
0.00504358
0.0053699
0.0057004
0.00603458
0.0063719
0.00671184
0.00705381
0.00739725
0.00774158
0.00808624
0.00843065
0.00877422
0.00911637
0.00945647
0.0097939
0.010128
0.0104581
0.0107836
0.0111036
0.0114176
0.0117249
0.0120249
0.0123167
0.0125999
0.0128736
0.0131373
0.0133904
0.0136321
0.013862
0.0140795
0.014284
0.0144752
0.0146525
0.0148156
0.014964
0.0150974
0.0152156
0.0153182
0.0154052
0.0154764
0.0155316
0.0155709
0.0155942
0.0156017
0.0155934
0.0155694
0.0155301
0.0154754
0.0154058
0.0153213
0.0152221
0.0151094
0.0149842
0.0148335
0.0146456
-0.000159966
-0.000348868
-0.000499129
-0.000622753
-0.000733337
-0.00083034
-0.000913139
-0.000982072
-0.00103745
-0.00107953
-0.00110854
-0.00112468
-0.00112811
-0.00111901
-0.00109753
-0.00106381
-0.00101796
-0.000960054
-0.000890178
-0.000808411
-0.000714846
-0.000609585
-0.000492729
-0.000364382
-0.000224651
-7.365e-05
8.84834e-05
0.000261581
0.000445455
0.000639906
0.000844727
0.00105971
0.00128466
0.00151933
0.00176349
0.00201684
0.00227911
0.00254997
0.0028291
0.00311616
0.00341082
0.00371267
0.00402127
0.00433616
0.00465687
0.0049829
0.00531374
0.00564889
0.00598782
0.00633002
0.00667495
0.00702202
0.00737067
0.00772033
0.00807044
0.0084204
0.00876964
0.00911753
0.00946344
0.00980672
0.0101467
0.0104826
0.0108139
0.0111398
0.0114595
0.0117725
0.012078
0.0123753
0.0126639
0.0129428
0.0132116
0.0134696
0.0137161
0.0139505
0.0141723
0.014381
0.0145759
0.0147568
0.0149231
0.0150743
0.0152103
0.0153306
0.0154351
0.0155234
0.0155955
0.0156514
0.0156908
0.0157139
0.0157208
0.0157115
0.0156861
0.0156449
0.0155881
0.0155159
0.0154285
0.0153262
0.0152101
0.0150814
0.0149267
0.0147341
-0.00028325
-0.000476381
-0.000630144
-0.000756802
-0.000870203
-0.000969723
-0.00105471
-0.00112553
-0.00118253
-0.00122592
-0.00125594
-0.0012728
-0.00127672
-0.00126787
-0.00124642
-0.0012125
-0.00116622
-0.00110767
-0.00103696
-0.000954181
-0.000859442
-0.000752851
-0.000634508
-0.000504512
-0.000362974
-0.000210023
-4.58106e-05
0.000129487
0.000315683
0.00051259
0.000720014
0.000937759
0.00116563
0.00140338
0.00165076
0.0019075
0.00217331
0.00244788
0.00273089
0.00302201
0.00332087
0.00362707
0.00394014
0.00425964
0.00458507
0.00491595
0.00525178
0.00559205
0.00593625
0.00628385
0.00663431
0.00698705
0.00734151
0.00769713
0.00805332
0.0084095
0.00876506
0.00911936
0.00947173
0.00982149
0.0101679
0.0105104
0.0108481
0.0111804
0.0115064
0.0118257
0.0121374
0.0124408
0.0127352
0.01302
0.0132944
0.0135578
0.0138095
0.0140489
0.0142755
0.0144886
0.0146878
0.0148725
0.0150423
0.0151968
0.0153355
0.0154582
0.0155646
0.0156545
0.0157278
0.0157843
0.0158241
0.0158471
0.0158534
0.0158432
0.0158165
0.0157735
0.0157146
0.01564
0.0155498
0.0154443
0.0153249
0.0151926
0.0150339
0.0148367
-0.000421906
-0.000619311
-0.000776568
-0.000906204
-0.00102239
-0.00112445
-0.00121165
-0.00128437
-0.00134295
-0.00138764
-0.00141866
-0.00143625
-0.00144065
-0.00143203
-0.00141056
-0.00137637
-0.00132958
-0.0012703
-0.00119866
-0.00111477
-0.00101873
-0.000910654
-0.000790644
-0.000658801
-0.000515253
-0.00036014
-0.000193624
-1.58846e-05
0.000172901
0.000372558
0.000582901
0.000803739
0.00103487
0.00127605
0.00152702
0.00178751
0.00205724
0.00233592
0.00262321
0.00291878
0.00322225
0.00353319
0.00385115
0.00417565
0.00450624
0.00484243
0.00518372
0.00552962
0.0058796
0.00623314
0.0065897
0.00694871
0.0073096
0.0076718
0.00803473
0.00839778
0.00876032
0.00912167
0.00948114
0.00983803
0.0101916
0.0105412
0.010886
0.0112253
0.0115583
0.0118844
0.0122029
0.012513
0.0128139
0.0131051
0.0133856
0.013655
0.0139124
0.0141574
0.0143891
0.0146072
0.0148109
0.0149999
0.0151735
0.0153314
0.0154732
0.0155986
0.0157072
0.0157989
0.0158735
0.0159309
0.0159711
0.0159942
0.0160001
0.015989
0.015961
0.0159164
0.0158554
0.0157783
0.0156854
0.0155768
0.015454
0.0153181
0.0151553
0.0149533
-0.000575999
-0.000777779
-0.000938614
-0.00107126
-0.00119023
-0.00129483
-0.00138428
-0.0014589
-0.00151906
-0.00156504
-0.00159707
-0.0016154
-0.00162026
-0.00161184
-0.00159029
-0.00155575
-0.00150837
-0.00144829
-0.00137562
-0.0012905
-0.00119302
-0.0010833
-0.00096144
-0.000827559
-0.000681801
-0.000524317
-0.000355273
-0.000174841
1.68124e-05
0.00021952
0.0004331
0.000657357
0.000892078
0.00113703
0.00139194
0.00165655
0.0019306
0.00221377
0.00250574
0.00280616
0.00311462
0.0034307
0.00375395
0.00408391
0.0044201
0.00476207
0.00510932
0.00546136
0.00581767
0.00617772
0.00654097
0.00690686
0.00727481
0.00764424
0.00801455
0.00838511
0.00875527
0.00912431
0.00949153
0.00985618
0.0102175
0.0105748
0.0109274
0.0112743
0.011615
0.0119487
0.0122746
0.0125919
0.0129
0.0131981
0.0134854
0.0137613
0.014025
0.0142759
0.0145134
0.0147368
0.0149456
0.0151391
0.015317
0.0154787
0.0156238
0.0157521
0.0158632
0.0159569
0.016033
0.0160915
0.0161324
0.0161556
0.0161612
0.0161493
0.0161202
0.016074
0.0160109
0.0159314
0.0158356
0.0157238
0.0155974
0.0154578
0.0152907
0.0150837
-0.000745719
-0.00095198
-0.00111651
-0.00125227
-0.00137406
-0.00148121
-0.00157291
-0.00164946
-0.00171123
-0.00175851
-0.00179157
-0.00181064
-0.00181594
-0.00180765
-0.00178595
-0.00175101
-0.00170298
-0.001642
-0.00156821
-0.00148172
-0.00138266
-0.00127112
-0.00114723
-0.00101112
-0.000862958
-0.000702891
-0.000531083
-0.000347696
-0.00015289
5.31712e-05
0.0002703
0.000498294
0.000736937
0.000985992
0.0012452
0.00151432
0.00179306
0.00208112
0.00237815
0.0026838
0.00299765
0.00331929
0.00364825
0.0039841
0.00432637
0.00467462
0.00502836
0.00538708
0.00575028
0.00611743
0.00648799
0.00686138
0.00723702
0.00761432
0.00799266
0.00837138
0.00874978
0.00912715
0.00950273
0.00987578
0.0102455
0.0106112
0.0109721
0.0113275
0.0116764
0.0120183
0.0123523
0.0126776
0.0129934
0.0132991
0.0135938
0.0138768
0.0141473
0.0144048
0.0146484
0.0148777
0.0150919
0.0152905
0.015473
0.0156388
0.0157877
0.0159192
0.016033
0.016129
0.016207
0.0162668
0.0163084
0.0163319
0.0163373
0.0163248
0.0162944
0.0162465
0.0161814
0.0160992
0.0160004
0.0158853
0.0157553
0.0156117
0.0154402
0.015228
-0.000931356
-0.00114221
-0.00131052
-0.00144951
-0.00157422
-0.00168396
-0.00177793
-0.00185646
-0.00191989
-0.00196851
-0.0020026
-0.00202238
-0.00202806
-0.00201986
-0.00199796
-0.00196255
-0.00191379
-0.00185183
-0.00177679
-0.0016888
-0.00158797
-0.00147444
-0.00134835
-0.00120984
-0.00105907
-0.000896202
-0.000721382
-0.00053477
-0.000336525
-0.000126816
9.41636e-05
0.000326206
0.000569095
0.000822599
0.00108647
0.00136045
0.00164426
0.00193758
0.00224006
0.00255133
0.00287097
0.00319858
0.00353371
0.00387591
0.00422477
0.00457982
0.00494059
0.00530657
0.00567725
0.00605211
0.00643059
0.00681212
0.0071961
0.00758192
0.00796892
0.00835642
0.0087437
0.00913001
0.00951459
0.00989666
0.0102755
0.0106502
0.0110202
0.0113845
0.0117425
0.0120932
0.012436
0.0127699
0.0130942
0.0134081
0.0137108
0.0140015
0.0142795
0.0145441
0.0147945
0.01503
0.0152502
0.0154543
0.0156418
0.0158123
0.0159652
0.0161003
0.0162173
0.0163158
0.0163958
0.0164571
0.0164997
0.0165236
0.0165288
0.0165156
0.016484
0.0164344
0.0163669
0.0162821
0.0161802
0.0160615
0.0159277
0.01578
0.0156039
0.0153863
-0.00113321
-0.0013488
-0.00152099
-0.0016633
-0.00179103
-0.00190346
-0.00199978
-0.00208034
-0.00214548
-0.00219546
-0.00223055
-0.00225101
-0.00225704
-0.00224889
-0.00222674
-0.0021908
-0.00214122
-0.00207815
-0.00200172
-0.00191207
-0.00180933
-0.00169365
-0.00156518
-0.00142408
-0.0012705
-0.00110459
-0.000926506
-0.000736401
-0.000534439
-0.000320798
-9.56763e-05
0.000140718
0.000388175
0.000646467
0.000915346
0.00119455
0.0014838
0.00178276
0.00209106
0.00240833
0.00273418
0.0030682
0.00340994
0.00375901
0.00411496
0.00447736
0.00484571
0.00521954
0.0055983
0.00598149
0.00636853