/*--------------------------------*- C++ -*----------------------------------*\
| =========                 |                                                 |
| \\      /  F ield         | OpenFOAM: The Open Source CFD Toolbox           |
|  \\    /   O peration     | Version:  2512                                  |
|   \\  /    A nd           | Website:  www.openfoam.com                      |
|    \\/     M anipulation  |                                                 |
\*---------------------------------------------------------------------------*/
FoamFile
{
    version     2.0;
    format      ascii;
    arch        "LSB;label=32;scalar=64";
    class       volScalarField;
    location    "0.4";
    object      p;
}
// * * * * * * * * * * * * * * * * * * * * * * * * * * * * * * * * * * * * * //

dimensions      [0 2 -2 0 0 0 0];

internalField   nonuniform List<scalar> 
10000
(
-1.45625e-08
7.82008e-07
-3.62513e-05
-0.000116839
-0.000228218
-0.00035897
-0.000501914
-0.000651089
-0.000801813
-0.000951029
-0.00109593
-0.00123385
-0.00136296
-0.00148162
-0.00158838
-0.00168288
-0.00176448
-0.00183255
-0.00188672
-0.00192661
-0.00195193
-0.00196267
-0.00195898
-0.00194083
-0.00190807
-0.00186063
-0.00179857
-0.00172204
-0.00163113
-0.00152592
-0.00140666
-0.00127349
-0.0011264
-0.000965426
-0.000790834
-0.000603083
-0.000402549
-0.000189398
3.61573e-05
0.000273663
0.000522537
0.00078225
0.00105232
0.00133216
0.001621
0.00191808
0.00222267
0.00253398
0.00285097
0.00317246
0.00349726
0.00382433
0.00415253
0.00448053
0.00480679
0.00512964
0.00544752
0.00575904
0.00606279
0.00635727
0.00664092
0.00691229
0.00717005
0.00741294
0.00763965
0.00784888
0.0080394
0.0082102
0.00836051
0.00848976
0.00859747
0.00868315
0.00874643
0.00878712
0.00880534
0.00880139
0.00877575
0.00872899
0.00866192
0.00857568
0.00847174
0.00835179
0.00821768
0.00807128
0.00791456
0.00774966
0.00757899
0.00740523
0.00723126
0.00706009
0.0068947
0.0067382
0.00659386
0.00646528
0.00635629
0.00627068
0.00621165
0.00618126
0.00617959
0.00619804
-6.10028e-06
-1.85699e-05
-5.93002e-05
-0.000131792
-0.000227058
-0.000337807
-0.000459282
-0.000586931
-0.000717068
-0.00084667
-0.000973173
-0.00109441
-0.00120838
-0.00131354
-0.00140871
-0.00149272
-0.00156497
-0.00162506
-0.00167247
-0.00170681
-0.00172774
-0.00173506
-0.00172885
-0.00170912
-0.00167574
-0.00162864
-0.00156783
-0.00149326
-0.00140493
-0.00130302
-0.00118775
-0.00105925
-0.000917497
-0.000762613
-0.000594904
-0.000414725
-0.000222369
-1.80422e-05
0.000198006
0.000425298
0.00066325
0.000911401
0.00116932
0.00143637
0.0017118
0.00199492
0.00228506
0.00258141
0.00288292
0.00318846
0.003497
0.00380759
0.00411913
0.00443032
0.00473964
0.00504555
0.00534666
0.00564169
0.00592929
0.006208
0.00647636
0.00673308
0.00697701
0.00720696
0.00742168
0.00761989
0.00780049
0.00796262
0.00810563
0.00822903
0.00833235
0.00841513
0.00847702
0.00851791
0.00853797
0.00853754
0.00851703
0.00847697
0.00841812
0.0083416
0.00824886
0.00814157
0.00802143
0.00789014
0.00774951
0.00760154
0.00744855
0.00729308
0.00713781
0.00698542
0.00683855
0.00669989
0.00657228
0.00645875
0.00636246
0.00628635
0.0062326
0.00620251
0.00619783
0.00621613
1.27257e-05
-8.57522e-06
-5.24494e-05
-0.000120811
-0.000206758
-0.000305179
-0.000412633
-0.000525885
-0.000641623
-0.00075702
-0.000870145
-0.000978638
-0.0010808
-0.00117545
-0.00126121
-0.00133685
-0.00140173
-0.00145526
-0.00149708
-0.00152682
-0.00154404
-0.00154859
-0.00154035
-0.00151924
-0.00148524
-0.00143833
-0.00137845
-0.00130545
-0.00121932
-0.00112024
-0.00100838
-0.000883804
-0.000746526
-0.000596741
-0.00043483
-0.000261078
-7.56136e-05
0.000121342
0.000329388
0.000548068
0.000776934
0.00101553
0.00126333
0.00151972
0.00178405
0.00205571
0.00233404
0.00261818
0.00290704
0.00319958
0.00349492
0.00379226
0.00409047
0.00438816
0.00468389
0.00497626
0.00526404
0.00554597
0.00582073
0.00608691
0.00634316
0.00658831
0.00682135
0.00704113
0.00724639
0.00743589
0.00760862
0.00776387
0.00790111
0.00801988
0.00811968
0.00820006
0.00826073
0.00830166
0.00832307
0.00832526
0.00830858
0.00827351
0.00822077
0.00815152
0.00806722
0.00796946
0.00785979
0.00773979
0.00761112
0.00747572
0.00733586
0.00719394
0.00705242
0.00691368
0.00678007
0.00665395
0.00653789
0.00643455
0.00634667
0.00627675
0.00622659
0.00619747
0.0061929
0.00621419
5.33791e-05
2.36027e-05
-2.39919e-05
-9.04495e-05
-0.000171347
-0.000262162
-0.000360768
-0.000464317
-0.000569779
-0.00067527
-0.000778456
-0.000877372
-0.000970525
-0.00105668
-0.00113465
-0.00120343
-0.00126222
-0.00131038
-0.00134749
-0.00137321
-0.00138723
-0.00138942
-0.0013795
-0.00135729
-0.0013228
-0.00127604
-0.00121684
-0.0011451
-0.00106088
-0.000964383
-0.000855611
-0.000734467
-0.000601121
-0.000455931
-0.000299155
-0.000130961
4.84664e-05
0.000238865
0.000439856
0.000651017
0.000871963
0.00110227
0.00134132
0.00158849
0.00184325
0.00210513
0.00237343
0.00264716
0.00292525
0.0032068
0.00349111
0.00377736
0.0040644
0.00435083
0.00463527
0.00491647
0.00519325
0.0054644
0.0057286
0.00598448
0.00623081
0.00646656
0.00669075
0.00690225
0.00709977
0.00728212
0.00744842
0.00759808
0.00773062
0.00784555
0.00794237
0.00802066
0.00808022
0.00812108
0.00814344
0.00814756
0.0081337
0.00810231
0.00805418
0.00799047
0.00791263
0.00782211
0.00772036
0.00760881
0.00748909
0.00736312
0.00723305
0.00710118
0.00696973
0.00684083
0.00671658
0.00659915
0.00649088
0.00639421
0.00631159
0.00624529
0.00619698
0.0061681
0.006163
0.00618442
0.000115944
7.58821e-05
2.28218e-05
-4.43787e-05
-0.0001228
-0.00020954
-0.000302131
-0.000398449
-0.000496414
-0.00059387
-0.000689044
-0.000780252
-0.00086593
-0.000944896
-0.00101609
-0.00107872
-0.00113204
-0.00117543
-0.00120831
-0.00123036
-0.00124146
-0.00124136
-0.0012298
-0.00120665
-0.00117187
-0.00112528
-0.00106672
-0.000996221
-0.000913908
-0.000819809
-0.000713893
-0.000596115
-0.000466656
-0.000325907
-0.000174075
-1.11878e-05
0.000162519
0.000346624
0.000540809
0.000744833
0.000958323
0.00118073
0.00141144
0.00164996
0.00189587
0.00214864
0.00240752
0.00267151
0.00293962
0.00321109
0.00348528
0.00376138
0.00403817
0.00431427
0.00458844
0.00485956
0.00512645
0.00538787
0.0056425
0.0058891
0.00612657
0.00635398
0.00657031
0.00677438
0.00696492
0.00714085
0.00730142
0.00744613
0.00757448
0.00768593
0.00777997
0.00785628
0.00791475
0.00795546
0.00797854
0.00798416
0.00797253
0.00794412
0.00789978
0.0078407
0.00776823
0.00768371
0.00758847
0.00748386
0.00737149
0.00725324
0.00713116
0.00700738
0.00688392
0.0067627
0.00664564
0.00653474
0.00643215
0.00634011
0.00626083
0.00619637
0.00614831
0.00611814
0.00611016
0.00612728
0.000199424
0.000146801
8.61835e-05
1.60867e-05
-6.3129e-05
-0.000148271
-0.000237642
-0.000329544
-0.000422199
-0.000513668
-0.000602548
-0.000687501
-0.00076711
-0.000840177
-0.000905783
-0.000963149
-0.00101165
-0.0010508
-0.00107999
-0.0010989
-0.0011074
-0.00110523
-0.00109218
-0.00106819
-0.00103312
-0.000986752
-0.000928921
-0.000859716
-0.000779284
-0.000687502
-0.000584228
-0.000469641
-0.000344052
-0.000207622
-6.04112e-05
9.74278e-05
0.000265575
0.000443682
0.000631504
0.00082881
0.00103521
0.00125016
0.00147306
0.00170354
0.00194126
0.00218563
0.00243576
0.00269071
0.00294966
0.00321197
0.00347702
0.00374389
0.00401134
0.00427809
0.00454306
0.00480519
0.00506327
0.00531598
0.00556208
0.00580048
0.00603019
0.00625028
0.00645969
0.00665719
0.00684156
0.00701184
0.00716741
0.00730778
0.00743242
0.00754074
0.00763225
0.00770674
0.00776419
0.00780464
0.00782817
0.00783484
0.00782488
0.0077988
0.0077575
0.00770213
0.00763397
0.00755425
0.00746417
0.00736508
0.00725854
0.00714638
0.00703055
0.00691299
0.00679555
0.00667999
0.0065681
0.00646174
0.00636289
0.00627359
0.00619583
0.00613145
0.00608195
0.00604878
0.0060356
0.00604478
0.00029996
0.000232569
0.00016263
8.73524e-05
5.38965e-06
-8.06571e-05
-0.000169196
-0.000258835
-0.000348208
-0.000435842
-0.000520274
-0.000600377
-0.000675099
-0.000743427
-0.000804523
-0.000857557
-0.000902012
-0.000937447
-0.000963438
-0.000979705
-0.000986001
-0.000982057
-0.000967786
-0.000943137
-0.000907811
-0.000861614
-0.000804621
-0.000736849
-0.00065819
-0.000568558
-0.000467941
-0.000356511
-0.00023456
-0.000102211
4.05714e-05
0.000193619
0.000356504
0.000528915
0.000710762
0.000901832
0.00110162
0.00130956
0.00152522
0.00174836
0.00197861
0.00221526
0.00245734
0.00270405
0.00295476
0.00320889
0.00346572
0.00372428
0.00398339
0.00424188
0.00449878
0.00475302
0.00500335
0.00524842
0.00548711
0.00571845
0.00594151
0.00615532
0.00635875
0.00655055
0.00672961
0.00689509
0.00704642
0.00718309
0.0073045
0.00741004
0.00749932
0.00757219
0.00762868
0.00766878
0.00769246
0.00769977
0.00769095
0.00766658
0.00762756
0.00757501
0.00751012
0.00743401
0.00734783
0.00725287
0.00715067
0.007043
0.00693169
0.00681856
0.00670527
0.00659346
0.00648481
0.00638109
0.00628413
0.00619579
0.0061178
0.00605181
0.00599921
0.0059614
0.00594105
0.00593965
0.00041351
0.000329629
0.000248498
0.000166369
8.00315e-05
-8.84453e-06
-9.84447e-05
-0.00018757
-0.000275385
-0.000360815
-0.000442447
-0.000519161
-0.00059022
-0.000654893
-0.000712374
-0.00076192
-0.000803052
-0.000835444
-0.000858793
-0.000872745
-0.000877111
-0.0008718
-0.000856607
-0.000831369
-0.000795934
-0.000750133
-0.000694012
-0.000627621
-0.000550736
-0.000463199
-0.000365183
-0.00025693
-0.000138521
-9.95928e-06
0.000128657
0.000277053
0.000434894
0.000602013
0.000778321
0.000963507
0.00115705
0.0013585
0.00156757
0.00178403
0.00200743
0.00223696
0.00247171
0.00271103
0.00295441
0.00320123
0.0034507
0.00370186
0.0039536
0.00420489
0.00445479
0.00470219
0.00494577
0.00518423
0.00541659
0.00564198
0.00585946
0.00606794
0.00626625
0.00645322
0.00662783
0.00678933
0.00693715
0.00707071
0.00718936
0.00729252
0.00737988
0.00745135
0.00750694
0.00754659
0.0075702
0.0075778
0.00756966
0.00754642
0.00750899
0.00745844
0.00739587
0.00732232
0.00723886
0.00714675
0.0070475
0.00694283
0.00683448
0.00672411
0.00661326
0.00650347
0.00639632
0.00629351
0.00619677
0.00610774
0.00602796
0.00595882
0.00590161
0.00585769
0.0058286
0.0058148
0.000536116
0.000434321
0.000340745
0.000250575
0.000158064
6.49267e-05
-2.72268e-05
-0.000117454
-0.000205189
-0.000289564
-0.000369565
-0.000444249
-0.000512866
-0.000574847
-0.000629526
-0.000676357
-0.000714889
-0.000744865
-0.000766067
-0.000778155
-0.000780953
-0.000774519
-0.000758661
-0.000733017
-0.000697561
-0.000652383
-0.000597356
-0.000532268
-0.000457025
-0.000371684
-0.000276374
-0.000171171
-5.60848e-05
6.88221e-05
0.000203378
0.000347332
0.000500453
0.000662634
0.000833728
0.00101335
0.00120106
0.00139656
0.00159965
0.00181003
0.00202714
0.00225014
0.00247828
0.00271104
0.00294795
0.00318829
0.00343122
0.00367583
0.00392117
0.00416628
0.00441018
0.00465169
0.00488948
0.00512236
0.00534946
0.00556994
0.00578281
0.00598686
0.00618091
0.0063639
0.00653492
0.00669324
0.00683823
0.00696926
0.00708564
0.00718684
0.0072726
0.00734289
0.00739768
0.00743683
0.00746019
0.00746778
0.00745994
0.00743734
0.0074009
0.00735163
0.00729052
0.00721853
0.00713669
0.00704625
0.0069487
0.00684568
0.00673885
0.00662972
0.00651974
0.00641035
0.00630311
0.00619966
0.00610161
0.00601043
0.00592742
0.00585374
0.00579061
0.00573937
0.00570033
0.00567294
0.000663481
0.000543253
0.000436527
0.000336813
0.000237202
0.000138751
4.26537e-05
-5.01122e-05
-0.00013896
-0.000223444
-0.000302842
-0.000376433
-0.000443577
-0.000503767
-0.000556454
-0.000601203
-0.000637815
-0.000666023
-0.000685461
-0.00069607
-0.000697849
-0.000690591
-0.00067409
-0.000648288
-0.000613187
-0.000568733
-0.000514752
-0.00045105
-0.000377589
-0.000294493
-0.000201844
-9.95889e-05
1.22949e-05
0.000133658
0.000264288
0.000404019
0.000552717
0.000710264
0.00087643
0.00105082
0.00123313
0.00142322
0.00162088
0.0018257
0.00203704
0.00225414
0.00247639
0.0027034
0.00293463
0.00316924
0.00340641
0.00364536
0.00388526
0.00412514
0.00436396
0.00460048
0.00483344
0.00506176
0.00528463
0.0055012
0.00571034
0.00591082
0.00610148
0.00628136
0.00644962
0.00660552
0.00674837
0.00687745
0.00699207
0.00709174
0.00717627
0.00724565
0.00729977
0.00733841
0.00736138
0.00736874
0.00736089
0.00733853
0.00730257
0.00725391
0.00719346
0.00712211
0.00704088
0.00695102
0.00685402
0.00675145
0.00664482
0.00653554
0.00642495
0.00631449
0.00620571
0.00610019
0.00599943
0.00590474
0.0058172
0.00573778
0.00566764
0.00560808
0.00555825
0.00551658
0.000792001
0.000653231
0.000532656
0.000422869
0.000315156
0.000210472
0.000109625
1.33156e-05
-7.78076e-05
-0.000163467
-0.000243229
-0.000316612
-0.000383084
-0.000442159
-0.000493618
-0.000537069
-0.000572263
-0.00059911
-0.000617381
-0.00062698
-0.000627959
-0.000620159
-0.000603367
-0.00057765
-0.000543087
-0.000499492
-0.000446603
-0.000384355
-0.000312829
-0.000232077
-0.000142031
-4.25971e-05
6.6168e-05
0.00018405
0.000310894
0.000446649
0.000591203
0.000744354
0.000905821
0.00107531
0.00125268
0.00143788
0.0016306
0.00183029
0.00203637
0.00224822
0.00246534
0.00268733
0.00291356
0.00314316
0.00337536
0.00360954
0.00384491
0.00408045
0.00431504
0.00454747
0.00477656
0.00500132
0.00522095
0.00543453
0.00564083
0.00583857
0.00602669
0.00620433
0.00637067
0.00652493
0.00666631
0.00679402
0.0069074
0.00700601
0.00708972
0.00715847
0.00721209
0.00725026
0.00727277
0.00727974
0.00727165
0.00724923
0.0072133
0.00716465
0.0071041
0.00703253
0.006951
0.00686077
0.0067633
0.00666006
0.00655242
0.0064417
0.00632918
0.00621631
0.00610464
0.00599575
0.00589102
0.00579157
0.00569833
0.00561211
0.00553404
0.0054654
0.00540422
0.00534789
0.000918875
0.000761306
0.000626844
0.000506478
0.000389838
0.000278064
0.000171846
7.14369e-05
-2.28319e-05
-0.000110632
-0.000191626
-0.000265512
-0.000332035
-0.000390789
-0.00044159
-0.000484337
-0.000518757
-0.000544672
-0.000562168
-0.000571241
-0.000571733
-0.000563565
-0.00054681
-0.000521551
-0.000487691
-0.000444978
-0.000393281
-0.000332681
-0.000263242
-0.000184838
-9.73035e-05
-6.27337e-07
0.000105025
0.000219481
0.000342725
0.000474758
0.000615375
0.000764287
0.000921283
0.00108624
0.00125915
0.00143989
0.00162803
0.00182301
0.00202435
0.0022316
0.00244429
0.00266193
0.0028838
0.00310908
0.0033371
0.00356736
0.00379906
0.00403109
0.00426228
0.0044915
0.00471766
0.00493983
0.00515718
0.00536866
0.00557295
0.00576881
0.00595526
0.00613154
0.00629683
0.00645021
0.00659077
0.0067177
0.00683039
0.00692847
0.0070118
0.00708025
0.00713355
0.0071713
0.00719335
0.00719987
0.00719142
0.00716869
0.00713238
0.00708318
0.00702184
0.0069493
0.00686667
0.00677524
0.00667638
0.00657144
0.00646168
0.00634833
0.00623267
0.00611617
0.00600043
0.00588697
0.00577708
0.00567175
0.00557175
0.00547781
0.00539105
0.00531277
0.00523987
0.00516873
0.0010413
0.000865069
0.000716632
0.00058534
0.000459348
0.000339824
0.000227562
0.000122428
2.45041e-05
-6.60405e-05
-0.000149022
-0.000224098
-0.000291167
-0.000350292
-0.000401176
-0.000443618
-0.00047763
-0.000503248
-0.000520467
-0.000529221
-0.000529473
-0.000521341
-0.000504986
-0.000480368
-0.000447281
-0.000405581
-0.000355317
-0.000296581
-0.000229269
-0.000153143
-6.80903e-05
2.57849e-05
0.000128325
0.00023948
0.000359322
0.000487799
0.000624592
0.000769415
0.000922215
0.00108303
0.00125186
0.00142848
0.00161236
0.00180303
0.00200019
0.00220347
0.00241234
0.00262621
0.00284434
0.00306597
0.0032906
0.00351777
0.00374659
0.00397588
0.00420447
0.00443134
0.00465552
0.00487608
0.00509205
0.00530227
0.00550538
0.00570021
0.00588592
0.00606176
0.00622682
0.00638004
0.00652043
0.00664721
0.00675983
0.00685796
0.00694139
0.00700987
0.00706303
0.0071005
0.00712216
0.00712828
0.00711941
0.00709617
0.00705912
0.00700885
0.00694614
0.00687198
0.00678757
0.00669418
0.00659308
0.00648549
0.00637257
0.00625549
0.0061356
0.0060144
0.00589349
0.00577438
0.00565827
0.00554602
0.00543832
0.00533583
0.00523976
0.0051514
0.00506653
0.00498054
0.00115698
0.000962225
0.000799561
0.000657333
0.000521813
0.000394134
0.00027527
0.00016486
6.27099e-05
-3.10448e-05
-0.000116354
-0.000193235
-0.000261608
-0.000321516
-0.000372871
-0.00041555
-0.000449673
-0.000475401
-0.000492648
-0.00050136
-0.000501756
-0.000494085
-0.000478363
-0.000454451
-0.000422267
-0.000381858
-0.000333299
-0.000276527
-0.000211313
-0.000137453
-5.49548e-05
3.60548e-05
0.000135537
0.000243554
0.000360142
0.000485128
0.000618157
0.00075907
0.000907993
0.00106502
0.00123006
0.00140279
0.00158271
0.00176952
0.00196305
0.00216294
0.00236852
0.00257912
0.00279408
0.00301278
0.00323479
0.00345962
0.00368628
0.00391352
0.0041403
0.00436574
0.0045889
0.00480875
0.00502418
0.00523393
0.00543671
0.00563144
0.00581736
0.00599367
0.00615931
0.00631309
0.006454
0.00658132
0.00669456
0.00679335
0.00687736
0.00694621
0.00699948
0.00703686
0.00705832
0.00706416
0.00705488
0.00703096
0.00699284
0.00694109
0.00687651
0.0068002
0.00671341
0.00661737
0.00651323
0.00640208
0.00628501
0.00616324
0.00603814
0.00591127
0.00578423
0.00565847
0.00553514
0.00541502
0.00529874
0.00518699
0.00508106
0.00498227
0.00488524
0.00478441
0.00126401
0.00105059
0.000873725
0.000720474
0.00057546
0.000439453
0.000313458
0.000197357
9.0702e-05
-6.72909e-06
-9.49205e-05
-0.000174002
-0.000244125
-0.00030527
-0.00035749
-0.000400873
-0.000435574
-0.000461688
-0.000479196
-0.000488264
-0.000489252
-0.000482315
-0.000467342
-0.000444282
-0.00041328
-0.00037447
-0.000327784
-0.000272988
-0.000209871
-0.000138371
-5.85518e-05
2.95751e-05
0.000126114
0.000231121
0.000344501
0.000465997
0.000595345
0.000732585
0.000877944
0.00103144
0.00119287
0.0013619
0.0015382
0.00172161
0.00191205
0.00210901
0.00231172
0.00251952
0.00273191
0.00294839
0.00316852
0.00339167
0.00361679
0.0038427
0.0040685
0.00429341
0.00451646
0.00473644
0.00495211
0.0051622
0.00536554
0.00556115
0.00574823
0.00592588
0.00609288
0.00624797
0.00639016
0.0065188
0.00663341
0.00673349
0.00681856
0.00688814
0.00694186
0.00697946
0.00700098
0.00700671
0.00699705
0.00697233
0.00693291
0.00687935
0.00681255
0.00673367
0.00664398
0.00654463
0.00643667
0.0063211
0.00619901
0.00607165
0.00594049
0.00580709
0.00567304
0.00553971
0.00540822
0.00527933
0.00515367
0.00503201
0.00491574
0.00480618
0.00469682
0.0045812
0.00135988
0.00112841
0.000937509
0.00077303
0.000618283
0.000473966
0.000340851
0.00021867
0.000107101
5.72999e-06
-8.57539e-05
-0.000167484
-0.000239629
-0.000302367
-0.000355905
-0.000400397
-0.000435961
-0.000462705
-0.000480833
-0.000490704
-0.000492597
-0.000486519
-0.000472434
-0.000450539
-0.00042109
-0.000384095
-0.000339312
-0.000286508
-0.000225612
-0.000156643
-7.95746e-05
5.73946e-06
9.94407e-05
0.000201461
0.000311581
0.000429594
0.000555429
0.00068927
0.000831303
0.000981403
0.00113932
0.00130488
0.00147794
0.00165843
0.00184619
0.00204056
0.00224076
0.00244627
0.00265673
0.00287166
0.0030905
0.00331253
0.00353673
0.00376205
0.00398772
0.004213
0.00443676
0.00465763
0.00487429
0.00508559
0.00529044
0.00548791
0.00567709
0.00585691
0.00602605
0.00618325
0.00632757
0.00645839
0.00657513
0.00667714
0.00676379
0.00683456
0.00688914
0.00692737
0.0069493
0.00695514
0.00694516
0.00691958
0.00687872
0.00682317
0.00675389
0.0066721
0.00657903
0.00647577
0.00636327
0.00624252
0.00611462
0.00598092
0.00584294
0.00570225
0.00556037
0.00541862
0.00527807
0.00513956
0.0050038
0.00487163
0.00474455
0.00462388
0.00450203
0.00437162
0.00144277
0.00119381
0.000988966
0.000813351
0.000648813
0.00049603
0.000355757
0.000227456
0.000110689
5.01819e-06
-9.00078e-05
-0.000174651
-0.000249122
-0.000313817
-0.000369033
-0.000414886
-0.000451513
-0.000479234
-0.000498453
-0.000509462
-0.000512382
-0.000507289
-0.000494415
-0.000474096
-0.000446465
-0.000411345
-0.000368487
-0.000317817
-0.000259366
-0.000193063
-0.000118709
-3.61116e-05
5.47516e-05
0.000153677
0.000260468
0.000375102
0.000497659
0.000628308
0.000767098
0.000913829
0.00106837
0.00123076
0.00140098
0.00157891
0.00176425
0.0019563
0.00215438
0.00235813
0.00256727
0.00278121
0.00299926
0.00322069
0.0034446
0.00367011
0.00389652
0.00412297
0.00434817
0.00457063
0.0047891
0.00500251
0.00520988
0.00541017
0.00560232
0.00578513
0.00595725
0.00611745
0.00626483
0.00639872
0.00651839
0.00662299
0.0067118
0.0067843
0.00684028
0.00687962
0.00690236
0.00690858
0.0068984
0.00687199
0.00682965
0.00677204
0.00670014
0.00661517
0.00651831
0.00641058
0.0062929
0.00616629
0.00603194
0.00589126
0.0057458
0.00559711
0.00544663
0.00529562
0.00514518
0.00499627
0.00484973
0.0047065
0.00456815
0.00443603
0.00430149
0.00415625
0.0015111
0.00124498
0.00102661
0.000839932
0.000665581
0.00050426
0.00035674
0.000222254
0.000100132
-1.00789e-05
-0.000108819
-0.000196551
-0.0002737
-0.00034069
-0.000397774
-0.000445138
-0.000483142
-0.000512292
-0.000532939
-0.000545214
-0.000549286
-0.000545504
-0.000534279
-0.000515837
-0.000490105
-0.000456888
-0.000416115
-0.000367841
-0.000312018
-0.000248385
-0.000176675
-9.68144e-05
-8.93404e-06
8.67661e-05
0.000190261
0.000301693
0.000421149
0.000548657
0.000684174
0.000827579
0.000978956
0.00113851
0.0013062
0.00148178
0.00166488
0.00185488
0.00205127
0.0022538
0.00246212
0.0026755
0.00289319
0.00311456
0.00333888
0.00356538
0.00379329
0.00402162
0.00424893
0.00447373
0.00469486
0.00491136
0.0051222
0.00532622
0.00552218
0.00570883
0.00588484
0.00604902
0.00620045
0.00633831
0.0064617
0.00656961
0.00666125
0.00673615
0.00679415
0.00683518
0.00685917
0.00686607
0.0068559
0.00682879
0.00678507
0.00672542
0.00665084
0.00656249
0.00646148
0.0063488
0.00622541
0.00609238
0.00595102
0.00580281
0.00564928
0.00549191
0.00533208
0.00517103
0.00500993
0.00484993
0.004692
0.00453715
0.00438705
0.00424309
0.00409561
0.00393545
0.00156331
0.00128036
0.00104877
0.000851266
0.000667227
0.000497383
0.000342513
0.00020169
7.41244e-05
-4.06834e-05
-0.000143315
-0.000234405
-0.000314486
-0.000383913
-0.000443006
-0.000492179
-0.000531985
-0.000562885
-0.000585068
-0.000598716
-0.000604271
-0.00060227
-0.000593019
-0.000576541
-0.000552742
-0.000521611
-0.000483223
-0.000437563
-0.0003844
-0.000323392
-0.000254377
-0.00017744
-9.27251e-05
-2.78182e-07
0.000100047
0.000208415
0.000324786
0.000449078
0.000581293
0.000721508
0.000869993
0.00102698
0.0011923
0.00136563
0.00154665
0.00173495
0.0019301
0.00213185
0.00233972
0.00255289
0.00277066
0.00299256
0.00321802
0.00344625
0.00367635
0.00390717
0.00413726
0.00436519
0.00458989
0.00481043
0.00502566
0.00523426
0.00543488
0.00562625
0.00580712
0.00597631
0.00613278
0.00627553
0.00640345
0.00651545
0.00661069
0.00668877
0.00674953
0.00679287
0.00681861
0.00682658
0.00681672
0.00678916
0.00674427
0.00668272
0.00660547
0.00651361
0.00640818
0.00629016
0.00616059
0.00602068
0.00587184
0.00571559
0.00555341
0.0053867
0.0052168
0.005045
0.00487258
0.00470084
0.00453092
0.0043639
0.00420155
0.00404533
0.00388456
0.00370926
0.00159803
0.00129856
0.0010539
0.000845876
0.000652373
0.000474014
0.000311704
0.00016453
3.15253e-05
-8.80078e-05
-0.000194761
-0.000289403
-0.000372476
-0.000444435
-0.00050582
-0.000557209
-0.000599115
-0.000631856
-0.000655672
-0.00067102
-0.000678535
-0.000678654
-0.000671478
-0.000657008
-0.000635341
-0.000606627
-0.000570882
-0.000527905
-0.000477382
-0.000419073
-0.000352975
-0.000279202
-0.000197749
-0.000108486
-1.12334e-05
9.40571e-05
0.00020722
0.000328198
0.000457173
0.000594406
0.000740221
0.000894758
0.00105776
0.00122893
0.00140811
0.00159505
0.00178935
0.00199064
0.00219834
0.00241164
0.00262999
0.00285306
0.00308035
0.00331095
0.00354382
0.00377774
0.0040113
0.0042432
0.0044724
0.00469789
0.00491837
0.00513238
0.00533852
0.00553558
0.00572234
0.00589758
0.00606008
0.00620861
0.00634194
0.00645889
0.00655864
0.00664078
0.00670512
0.00675146
0.00677952
0.00678904
0.00677992
0.00675228
0.00670651
0.00664329
0.00656347
0.00646805
0.006358
0.00623436
0.00609828
0.00595111
0.00579436
0.00562957
0.00545816
0.00528147
0.00510083
0.00491763
0.00473327
0.0045492
0.00436671
0.00418695
0.0040118
0.0038428
0.00366833
0.00347756
0.00161395
0.00129835
0.00104082
0.000822336
0.00061949
0.00043275
0.000263079
0.000109566
-2.89414e-05
-0.000153346
-0.000264337
-0.000362569
-0.000448697
-0.000523442
-0.00058748
-0.000641337
-0.000685411
-0.000720085
-0.000745861
-0.000763385
-0.000773202
-0.000775546
-0.000770497
-0.000758251
-0.000739073
-0.000713071
-0.000680077
-0.000639795
-0.000592017
-0.000536667
-0.000473777
-0.000403326
-0.000325125
-0.000238997
-0.000144872
-4.28328e-05
6.6958e-05
0.000184604
0.000310477
0.000444906
0.000588142
0.000740227
0.000900915
0.00107005
0.00124768
0.00143359
0.0016273
0.00182833
0.0020361
0.00224992
0.00246938
0.00269425
0.00292397
0.00315749
0.00339366
0.00363129
0.0038691
0.00410584
0.00434043
0.00457172
0.00479828
0.00501854
0.00523114
0.00543491
0.00562864
0.00581096
0.00598047
0.00613575
0.00627542
0.00639829
0.00650356
0.00659075
0.00665957
0.00670971
0.00674075
0.00675239
0.00674453
0.0067173
0.0066711
0.00660651
0.0065243
0.00642534
0.00631061
0.00618119
0.00603837
0.00588364
0.00571857
0.00554473
0.00536352
0.00517623
0.00498424
0.00478903
0.00459215
0.00439517
0.00419951
0.0040064
0.00381786
0.00363552
0.00344682
0.00324017
0.00160973
0.00127844
0.00100827
0.000779329
0.000567247
0.000372336
0.000195423
3.55115e-05
-0.000108605
-0.00023788
-0.00035307
-0.00045495
-0.000544375
-0.000622217
-0.000689108
-0.000745481
-0.000791809
-0.000828726
-0.000856922
-0.000876963
-0.000889194
-0.000893822
-0.000891127
-0.000881482
-0.000865118
-0.000841966
-0.000811763
-0.000774312
-0.000729578
-0.000677529
-0.000618065
-0.000550984
-0.000476038
-0.000393145
-0.00030237
-0.000203814
-9.74922e-05
1.6887e-05
0.000139778
0.000271451
0.000412054
0.000561625
0.000720044
0.000887342
0.00106365
0.00124873
0.001442
0.00164293
0.00185104
0.0020658
0.00228692
0.00251414
0.00274676
0.00298367
0.00322367
0.00346568
0.00370853
0.00395098
0.00419181
0.00442972
0.00466318
0.00489061
0.00511069
0.00532226
0.00552403
0.00571449
0.00589202
0.00605504
0.00620211
0.00633203
0.00644392
0.00653724
0.00661154
0.00666632
0.00670111
0.00671557
0.00670963
0.00668343
0.00663731
0.00657175
0.0064874
0.00638504
0.00626565
0.0061304
0.00598072
0.00581819
0.00564445
0.00546109
0.0052695
0.00507103
0.00486711
0.00465931
0.00444934
0.00423887
0.00402942
0.00382233
0.00361974
0.00342343
0.00321993
0.00299686
0.00158385
0.00123734
0.000954889
0.000715703
0.000494499
0.000291532
0.00010742
-5.88953e-05
-0.00020858
-0.000342646
-0.00046206
-0.000567791
-0.00066079
-0.000741871
-0.000811628
-0.000870595
-0.000919482
-0.000959086
-0.000990021
-0.00101268
-0.00102739
-0.00103454
-0.0010346
-0.0010279
-0.00101451
-0.000994272
-0.00096702
-0.000932733
-0.000891429
-0.000842952
-0.000787021
-0.000723366
-0.000651826
-0.000572448
-0.000485326
-0.000390433
-0.0002876
-0.000176436
-5.65335e-05
7.22726e-05
0.000210105
0.00035711
0.000513348
0.000678971
0.000854108
0.00103843
0.0012313
0.00143229
0.00164105
0.00185721
0.00208046
0.00231045
0.00254638
0.00278709
0.0030315
0.00327861
0.0035273
0.00377627
0.00402416
0.0042695
0.00451073
0.00474633
0.00497498
0.00519548
0.0054064
0.00560605
0.00579265
0.00596453
0.00612019
0.00625837
0.00637813
0.00647874
0.00655956
0.00661996
0.00665938
0.0066775
0.00667426
0.0066498
0.00660438
0.00653834
0.00645218
0.00634665
0.00622272
0.0060817
0.0059251
0.0057546
0.00557188
0.00537856
0.0051761
0.0049659
0.00474947
0.00452852
0.00430485
0.00408028
0.0038564
0.00363465
0.00341731
0.00320637
0.00298742
0.00274729
0.00153504
0.00117371
0.000879406
0.000630285
0.000400033
0.000189036
-2.16479e-06
-0.000174734
-0.000329876
-0.000468766
-0.000592571
-0.000702348
-0.00079901
-0.000883327
-0.000956024
-0.00101787
-0.00106972
-0.00111231
-0.00114609
-0.00117142
-0.00118884
-0.00119892
-0.00120209
-0.00119852
-0.00118819
-0.00117105
-0.00114711
-0.00111642
-0.00107886
-0.00103412
-0.000981829
-0.000921806
-0.000854012
-0.000778527
-0.000695332
-0.000604217
-0.000504906
-0.000397037
-0.000280304
-0.000154589
-1.96798e-05
0.000124742
0.000278872
0.000442884
0.000616842
0.000800369
0.000992895
0.00119412
0.00140387
0.00162181
0.00184755
0.00208063
0.0023202
0.00256518
0.00281459
0.00306753
0.00332283
0.0035791
0.00383481
0.00408843
0.00433839
0.00458323
0.00482161
0.00505219
0.00527337
0.00548332
0.00568015
0.0058621
0.00602764
0.00617543
0.00630436
0.0064135
0.00650201
0.0065691
0.00661419
0.00663696
0.00663736
0.00661547
0.00657144
0.00650546
0.00641794
0.00630955
0.00618134
0.00603468
0.00587119
0.00569261
0.00550068
0.00529703
0.00508323
0.00486076
0.00463125
0.00439654
0.00415858
0.00391927
0.00368031
0.00344316
0.00321033
0.00298402
0.00274889
0.00249092
0.00146229
0.0010864
0.000780535
0.000521759
0.000282612
6.36922e-05
-0.000134393
-0.000313045
-0.000473658
-0.000617514
-0.000745832
-0.000859678
-0.000959964
-0.00104759
-0.0011235
-0.00118859
-0.00124366
-0.00128932
-0.00132599
-0.00135424
-0.00137477
-0.00138812
-0.00139459
-0.00139426
-0.0013872
-0.00137354
-0.00135338
-0.00132663
-0.00129304
-0.00125218
-0.00120379
-0.00114779
-0.0010842
-0.00101297
-0.000933914
-0.000846706
-0.000751081
-0.00064677
-0.000533527
-0.000411165
-0.000279313
-0.000137509
1.44874e-05
0.000176798
0.00034944
0.000532089
0.000724322
0.000925997
0.00113701
0.001357
0.00158547
0.00182187
0.0020654
0.00231513
0.00257017
0.00282962
0.00309224
0.00335651
0.00362081
0.0038836
0.00414334
0.00439856
0.00464784
0.00488967
0.00512229
0.00534372
0.00555202
0.0057454
0.00592224
0.00608107
0.00622058
0.00633957
0.00643702
0.00651203
0.00656399
0.00659257
0.00659768
0.00657933
0.00653749
0.00647223
0.00638388
0.00627311
0.00614098
0.00598894
0.00581868
0.00563199
0.00543065
0.00521636
0.00499076
0.00475551
0.00451237
0.00426332
0.00401044
0.00375574
0.00350095
0.00324763
0.00299851
0.00275605
0.0025039
0.00222716
0.0013646
0.000974284
0.000657003
0.000388848
0.000141135
-8.54814e-05
-0.000290334
-0.000475033
-0.000641181
-0.00079007
-0.000922874
-0.00104072
-0.00114467
-0.00123585
-0.00131529
-0.00138383
-0.00144219
-0.00149096
-0.00153075
-0.0015623
-0.00158628
-0.00160311
-0.00161298
-0.0016161
-0.00161271