/*--------------------------------*- C++ -*----------------------------------*\
| =========                 |                                                 |
| \\      /  F ield         | OpenFOAM: The Open Source CFD Toolbox           |
|  \\    /   O peration     | Version:  2512                                  |
|   \\  /    A nd           | Website:  www.openfoam.com                      |
|    \\/     M anipulation  |                                                 |
\*---------------------------------------------------------------------------*/
FoamFile
{
    version     2.0;
    format      ascii;
    arch        "LSB;label=32;scalar=64";
    class       volScalarField;
    location    "0.4";
    object      p;
}
// * * * * * * * * * * * * * * * * * * * * * * * * * * * * * * * * * * * * * //

dimensions      [0 2 -2 0 0 0 0];

internalField   nonuniform List<scalar> 
10000
(
8.15018e-09
4.70434e-07
-3.17334e-05
-9.60647e-05
-0.00018565
-0.000294566
-0.000417143
-0.000548243
-0.000683439
-0.000819033
-0.000951938
-0.00107961
-0.00119994
-0.0013112
-0.00141202
-0.00150128
-0.00157813
-0.00164187
-0.001692
-0.00172809
-0.00174989
-0.00175719
-0.00174987
-0.00172788
-0.00169117
-0.00163977
-0.0015737
-0.00149303
-0.00139785
-0.00128827
-0.00116443
-0.00102646
-0.000874523
-0.000708824
-0.000529577
-0.000337028
-0.000131466
8.67794e-05
0.000317346
0.000559823
0.000813747
0.00107858
0.00135373
0.00163854
0.00193231
0.00223424
0.00254347
0.00285905
0.00317998
0.00350516
0.00383347
0.00416369
0.00449453
0.00482465
0.00515267
0.00547715
0.00579664
0.00610967
0.00641473
0.00671033
0.00699496
0.00726718
0.00752556
0.00776874
0.00799546
0.00820449
0.00839473
0.00856518
0.00871497
0.00884339
0.00894985
0.00903397
0.0090955
0.00913441
0.00915082
0.00914508
0.0091177
0.0090694
0.00900113
0.00891399
0.00880933
0.00868866
0.00855369
0.00840632
0.00824862
0.00808284
0.00791142
0.00773695
0.00756219
0.00739009
0.00722378
0.00706652
0.00692179
0.00679316
0.0066843
0.00659878
0.00653964
0.00650884
0.0065064
0.00652425
-5.78444e-06
-5.05447e-06
-3.39064e-05
-8.93846e-05
-0.000165606
-0.0002582
-0.000362932
-0.000475648
-0.000592647
-0.000710678
-0.000826959
-0.00093913
-0.0010452
-0.00114351
-0.00123267
-0.00131158
-0.00137933
-0.00143519
-0.00147861
-0.00150913
-0.00152642
-0.00153023
-0.00152039
-0.0014968
-0.00145937
-0.00140809
-0.00134298
-0.00126405
-0.00117138
-0.00106506
-0.000945204
-0.000811942
-0.000665436
-0.000505876
-0.000333477
-0.000148477
4.88429e-05
0.000258154
0.000479097
0.000711268
0.000954208
0.0012074
0.00147025
0.00174214
0.00202238
0.00231021
0.0026048
0.00290524
0.00321057
0.00351976
0.00383174
0.00414534
0.00445936
0.00477253
0.00508355
0.00539108
0.00569376
0.0059902
0.00627901
0.00655879
0.00682816
0.00708574
0.00733025
0.00756043
0.0077751
0.00797314
0.00815355
0.00831542
0.00845796
0.00858052
0.0086826
0.00876386
0.0088241
0.00886331
0.00888166
0.00887948
0.00885728
0.00881578
0.00875587
0.00867862
0.0085853
0.00847736
0.0083564
0.00822422
0.00808276
0.00793413
0.00778058
0.00762453
0.0074685
0.00731519
0.00716739
0.007028
0.00690002
0.00678645
0.00669025
0.00661412
0.00656013
0.00652955
0.00652416
0.00654206
1.88236e-05
1.78559e-05
-1.00853e-05
-6.11872e-05
-0.000129972
-0.000212803
-0.000306197
-0.000406728
-0.000511215
-0.000616819
-0.00072105
-0.00082175
-0.000917075
-0.00100546
-0.0010856
-0.00115638
-0.00121691
-0.00126646
-0.00130445
-0.00133043
-0.00134402
-0.00134495
-0.00133302
-0.00130809
-0.00127006
-0.00121889
-0.00115457
-0.00107711
-0.000986555
-0.000882991
-0.00076651
-0.000637232
-0.000495313
-0.000340937
-0.00017431
4.33864e-06
0.000194734
0.000396555
0.000609452
0.000833029
0.00106684
0.00131037
0.00156306
0.00182431
0.00209345
0.00236974
0.00265238
0.00294051
0.00323319
0.00352946
0.00382826
0.00412852
0.00442906
0.00472869
0.00502616
0.00532021
0.00560955
0.00589287
0.00616885
0.00643616
0.0066935
0.0069396
0.00717322
0.00739321
0.00759843
0.00778788
0.00796059
0.00811573
0.00825257
0.00837051
0.00846911
0.00854804
0.00860717
0.00864649
0.00866618
0.00866659
0.00864821
0.00861175
0.00855806
0.00848818
0.00840332
0.00830487
0.00819436
0.00807348
0.00794408
0.00780814
0.00766776
0.00752519
0.00738279
0.00724301
0.0071084
0.00698156
0.00686514
0.00676173
0.00667388
0.00660386
0.00655341
0.00652379
0.00651862
0.00653977
7.65285e-05
6.79832e-05
3.67008e-05
-1.41106e-05
-8.00509e-05
-0.000157924
-0.000244728
-0.000337532
-0.000433619
-0.000530513
-0.000625999
-0.000718144
-0.000805265
-0.000885917
-0.00095888
-0.00102312
-0.00107776
-0.00112211
-0.00115559
-0.00117774
-0.0011882
-0.00118668
-0.00117297
-0.00114691
-0.00110838
-0.00105733
-0.00099374
-0.000917597
-0.000828944
-0.000727847
-0.000614385
-0.000488667
-0.00035084
-0.000201081
-3.95813e-05
0.000133437
0.000317711
0.00051293
0.000718754
0.000934798
0.00116063
0.00139576
0.00163966
0.00189172
0.0021513
0.00241769
0.00269014
0.00296779
0.00324977
0.00353512
0.00382285
0.00411192
0.00440121
0.00468956
0.0049758
0.00525871
0.00553705
0.00580958
0.00607504
0.00633215
0.00657968
0.00681642
0.0070412
0.00725289
0.00745046
0.00763292
0.00779939
0.00794905
0.00808125
0.0081954
0.0082911
0.00836806
0.00842616
0.00846542
0.00848601
0.00848828
0.00847272
0.00844002
0.008391
0.00832668
0.00824822
0.00815693
0.0080543
0.00794194
0.00782159
0.00769512
0.00756452
0.0074319
0.00729943
0.0071694
0.00704414
0.00692602
0.00681741
0.00672065
0.00663799
0.00657154
0.00652292
0.00649361
0.00648806
0.00650961
0.000161713
0.00014011
0.000101642
4.80281e-05
-1.8038e-05
-9.3847e-05
-0.000176801
-0.000264434
-0.00035444
-0.000444692
-0.000533267
-0.000618455
-0.00069875
-0.000772847
-0.000839627
-0.000898142
-0.00094759
-0.000987304
-0.00101673
-0.00103543
-0.00104305
-0.0010393
-0.00102398
-0.000996902
-0.000957965
-0.000907094
-0.000844248
-0.000769421
-0.000682639
-0.000583954
-0.000473436
-0.000351183
-0.000217332
-7.20433e-05
8.45016e-05
0.000252094
0.000430482
0.000619367
0.000818423
0.00102728
0.00124554
0.00147271
0.00170829
0.0019517
0.00220231
0.00245946
0.0027224
0.00299033
0.00326239
0.00353768
0.00381524
0.00409405
0.00437307
0.00465116
0.0049272
0.00520003
0.00546845
0.00573127
0.00598727
0.00623525
0.00647402
0.0067024
0.00691929
0.00712362
0.00731438
0.00749063
0.00765153
0.00779633
0.00792436
0.00803511
0.00812817
0.0082033
0.00826038
0.00829943
0.00832065
0.00832436
0.00831106
0.00828141
0.00823622
0.00817646
0.00810326
0.00801787
0.00792172
0.00781634
0.00770338
0.00758462
0.00746194
0.00733729
0.00721272
0.00709033
0.00697227
0.0068607
0.00675776
0.00666558
0.00658619
0.00652152
0.00647315
0.00644262
0.00643437
0.00645182
0.00026818
0.000229972
0.000181411
0.000122421
5.36862e-05
-2.25244e-05
-0.000104001
-0.00018871
-0.000274715
-0.000360221
-0.000443584
-0.000523319
-0.000598113
-0.00066681
-0.000728406
-0.000782047
-0.000827009
-0.000862684
-0.000888559
-0.000904222
-0.000909333
-0.000903622
-0.000886884
-0.000858956
-0.000819716
-0.00076909
-0.000707035
-0.000633533
-0.000548599
-0.000452274
-0.000344623
-0.000225733
-9.57245e-05
4.5257e-05
0.000197042
0.000359435
0.000532196
0.000715046
0.000907675
0.00110974
0.00132084
0.00154053
0.00176832
0.00200364
0.00224591
0.00249449
0.00274866
0.00300764
0.00327062
0.00353672
0.00380501
0.00407454
0.00434427
0.00461314
0.00488004
0.00514385
0.00540343
0.00565762
0.00590526
0.00614517
0.00637622
0.00659726
0.00680724
0.0070051
0.0071899
0.00736072
0.00751676
0.00765728
0.00778165
0.00788939
0.00798009
0.00805354
0.00810961
0.00814834
0.00816993
0.0081747
0.00816312
0.00813585
0.00809367
0.00803752
0.00796848
0.00788777
0.00779675
0.00769687
0.00758973
0.00747699
0.00736043
0.0072419
0.00712329
0.00700655
0.00689367
0.00678663
0.00668738
0.00659784
0.00651988
0.00645524
0.00640545
0.00637201
0.00635872
0.00636836
0.000390319
0.00033341
0.000272699
0.000206271
0.000132755
5.40224e-05
-2.80473e-05
-0.000111812
-0.000195698
-0.000278203
-0.00035794
-0.000433657
-0.000504228
-0.000568652
-0.000626055
-0.000675688
-0.000716905
-0.000749167
-0.00077202
-0.000785088
-0.000788061
-0.000780687
-0.000762778
-0.000734177
-0.000694769
-0.000644481
-0.00058327
-0.000511108
-0.000428003
-0.000333992
-0.000229128
-0.000113485
1.28311e-05
0.000149687
0.000296926
0.000454369
0.000621796
0.000798942
0.000985519
0.0011812
0.00138562
0.00159834
0.00181889
0.00204675
0.00228135
0.00252207
0.00276823
0.00301909
0.00327384
0.00353166
0.00379166
0.00405289
0.00431437
0.00457506
0.0048339
0.0050898
0.00534165
0.00558833
0.00582871
0.00606165
0.00628604
0.00650078
0.00670482
0.00689716
0.00707687
0.00724306
0.00739495
0.00753181
0.00765305
0.00775818
0.00784682
0.00791875
0.00797386
0.00801219
0.00803392
0.00803938
0.00802903
0.0080035
0.00796354
0.00791007
0.00784414
0.00776693
0.00767972
0.00758392
0.00748105
0.0073727
0.00726054
0.00714631
0.0070318
0.00691882
0.0068092
0.00670477
0.00660731
0.00651859
0.00644028
0.006374
0.00632116
0.00628319
0.00626289
0.00626202
0.000523105
0.000446343
0.000372124
0.000296742
0.000216795
0.000133834
4.94713e-05
-3.50097e-05
-0.000118361
-0.000199363
-0.000276871
-0.000349844
-0.000417339
-0.000478518
-0.000532644
-0.000579074
-0.000617253
-0.000646715
-0.000667067
-0.000677981
-0.000679185
-0.00067046
-0.000651631
-0.000622557
-0.000583134
-0.000533295
-0.000472996
-0.000402207
-0.000320933
-0.000229204
-0.00012706
-1.45619e-05
0.000108194
0.000241089
0.000383984
0.000536715
0.000699082
0.000870841
0.00105172
0.00124143
0.0014396
0.00164584
0.0018597
0.00208068
0.00230823
0.00254178
0.00278067
0.00302417
0.00327153
0.00352194
0.00377454
0.00402843
0.00428264
0.00453616
0.00478797
0.005037
0.00528217
0.00552239
0.00575656
0.00598357
0.00620231
0.00641173
0.00661078
0.0067985
0.00697395
0.00713627
0.0072847
0.00741851
0.00753713
0.00764005
0.00772694
0.00779754
0.00785176
0.00788962
0.00791132
0.00791715
0.00790758
0.0078832
0.00784477
0.00779316
0.00772938
0.00765457
0.00756998
0.00747696
0.00737696
0.0072715
0.00716217
0.00705062
0.00693851
0.00682756
0.00671946
0.00661591
0.00651854
0.00642897
0.00634873
0.00627926
0.0062219
0.00617798
0.00614908
0.00613585
0.000662212
0.000565064
0.000476491
0.000391073
0.000303452
0.000214934
0.00012691
4.03429e-05
-4.38022e-05
-0.000124569
-0.000201048
-0.000272393
-0.00033784
-0.000396708
-0.000448392
-0.000492363
-0.000528165
-0.000555409
-0.000573766
-0.000582961
-0.000582768
-0.000573002
-0.000553512
-0.000524176
-0.000484906
-0.000435643
-0.000376341
-0.000306976
-0.000227549
-0.000138082
-3.86063e-05
7.08297e-05
0.000190142
0.000319226
0.000457962
0.000606204
0.000763771
0.000930441
0.00110597
0.00129007
0.00148242
0.00168265
0.00189033
0.00210498
0.00232611
0.00255313
0.00278543
0.00302233
0.00326307
0.0035069
0.00375297
0.0040004
0.00424826
0.00449557
0.00474132
0.00498447
0.00522397
0.00545874
0.0056877
0.00590976
0.00612383
0.00632886
0.00652383
0.00670777
0.00687977
0.00703897
0.0071846
0.00731597
0.00743246
0.00753361
0.00761904
0.00768852
0.00774194
0.00777933
0.00780085
0.0078068
0.00779763
0.00777391
0.00773637
0.00768586
0.00762337
0.00754999
0.00746694
0.00737552
0.00727712
0.00717319
0.00706526
0.00695489
0.00684366
0.00673318
0.00662503
0.00652078
0.00642198
0.00633007
0.00624645
0.00617243
0.00610928
0.00605819
0.00601951
0.0059927
0.000803912
0.000686264
0.000582848
0.000486649
0.000390451
0.000295354
0.000202579
0.000112817
2.67669e-05
-5.4844e-05
-0.000131319
-0.000202009
-0.000266318
-0.000323712
-0.000373716
-0.000415918
-0.00044996
-0.000475534
-0.00049238
-0.000500283
-0.000499062
-0.000488567
-0.000468678
-0.0004393
-0.000400361
-0.000351809
-0.000293606
-0.00022573
-0.000148179
-6.09698e-05
3.5876e-05
0.000142319
0.00025829
0.000383701
0.00051845
0.000662412
0.000815423
0.000977285
0.00114778
0.00132664
0.00151358
0.00170824
0.00191023
0.00211909
0.00233436
0.00255548
0.00278187
0.00301286
0.00324774
0.00348577
0.00372613
0.00396797
0.00421037
0.00445239
0.00469301
0.00493124
0.00516602
0.0053963
0.00562102
0.00583908
0.00604941
0.00625097
0.00644273
0.00662374
0.00679307
0.00694989
0.00709339
0.00722289
0.00733778
0.00743757
0.00752189
0.00759048
0.00764324
0.00768017
0.00770143
0.0077073
0.0076982
0.00767471
0.00763752
0.00758746
0.00752548
0.00745266
0.00737016
0.00727926
0.00718129
0.00707766
0.00696983
0.00685928
0.00674753
0.00663609
0.00652646
0.00642011
0.00631847
0.00622288
0.00613462
0.00605485
0.00598479
0.00592556
0.00587623
0.00583511
0.000944983
0.000806973
0.000688494
0.000581031
0.000475603
0.000373161
0.000274792
0.000180941
9.20755e-05
8.7182e-06
-6.86303e-05
-0.000139504
-0.00020347
-0.000260133
-0.000309148
-0.000350213
-0.000383067
-0.000407486
-0.000423284
-0.000430304
-0.000428411
-0.000417497
-0.000397479
-0.000368285
-0.00032986
-0.000282165
-0.000225172
-0.000158862
-8.32301e-05
1.71261e-06
9.59512e-05
0.000199456
0.000312176
0.000434039
0.000564959
0.000704831
0.000853516
0.00101084
0.0011766
0.00135057
0.00153248
0.001722
0.00191876
0.00212235
0.00233231
0.00254812
0.00276923
0.00299499
0.00322473
0.00345771
0.00369316
0.00393023
0.00416802
0.00440561
0.00464202
0.00487623
0.00510722
0.00533396
0.00555536
0.00577034
0.00597785
0.00617682
0.00636624
0.00654513
0.00671258
0.00686773
0.00700978
0.00713802
0.00725183
0.00735071
0.00743428
0.00750225
0.00755451
0.00759105
0.00761201
0.00761766
0.00760839
0.00758476
0.00754744
0.00749724
0.00743509
0.00736204
0.00727922
0.00718786
0.00708927
0.00698481
0.00687588
0.00676392
0.00665037
0.00653669
0.00642428
0.00631454
0.0062088
0.00610833
0.00601429
0.00592773
0.00584984
0.00578166
0.00572105
0.00566522
0.0010826
0.000924523
0.000790956
0.000671945
0.00055684
0.000446491
0.00034188
0.000243237
0.000150823
6.49712e-05
-1.39961e-05
-8.57764e-05
-0.000150088
-0.000206677
-0.000255318
-0.000295818
-0.00032801
-0.000351757
-0.000366941
-0.000373466
-0.000371247
-0.000360221
-0.00034034
-0.000311558
-0.000273836
-0.000227154
-0.000171492
-0.000106835
-3.31758e-05
4.94763e-05
0.000141116
0.000241726
0.000351269
0.000469691
0.000596924
0.000732882
0.000877451
0.00103048
0.00119179
0.0013612
0.00153844
0.00172322
0.0019152
0.002114
0.00231917
0.00253025
0.00274668
0.00296787
0.00319314
0.00342181
0.00365309
0.00388617
0.00412018
0.00435419
0.00458724
0.00481833
0.00504643
0.00527052
0.00548951
0.00570232
0.00590789
0.00610515
0.00629307
0.00647067
0.00663701
0.00679122
0.00693249
0.00706009
0.00717337
0.00727181
0.00735501
0.00742268
0.00747465
0.00751093
0.00753161
0.00753694
0.00752732
0.00750325
0.00746541
0.00741458
0.00735166
0.00727767
0.00719373
0.00710105
0.00700088
0.00689456
0.00678346
0.00666895
0.00655244
0.00643532
0.00631895
0.00620465
0.00609369
0.00598725
0.00588642
0.00579216
0.00570564
0.00562788
0.00555555
0.00548481
0.00121426
0.00103652
0.000887956
0.000757265
0.000632206
0.000513546
0.000402206
0.000298226
0.000201678
0.00011272
3.15148e-05
-4.1784e-05
-0.00010704
-0.000164129
-0.000212944
-0.000253393
-0.000285405
-0.000308924
-0.000323899
-0.000330296
-0.000328086
-0.000317248
-0.000297767
-0.000269622
-0.000232799
-0.000187292
-0.000133091
-7.01835e-05
1.43461e-06
8.17607e-05
0.000170797
0.00026854
0.000374966
0.000490037
0.000613706
0.000745908
0.000886553
0.00103552
0.00119265
0.00135779
0.0015307
0.00171113
0.00189875
0.0020932
0.00229409
0.00250096
0.0027133
0.00293053
0.003152
0.00337702
0.00360487
0.00383473
0.00406574
0.00429698
0.00452751
0.00475633
0.00498242
0.00520473
0.0054222
0.00563373
0.00583824
0.00603464
0.00622191
0.00639903
0.00656505
0.00671907
0.00686025
0.00698783
0.00710116
0.00719967
0.00728293
0.00735063
0.00740259
0.00743877
0.00745924
0.00746425
0.00745414
0.00742943
0.00739074
0.00733885
0.00727464
0.00719911
0.00711335
0.00701855
0.00691594
0.00680684
0.00669257
0.00657449
0.00645396
0.00633233
0.00621091
0.00609099
0.00597376
0.00586038
0.00575185
0.00564909
0.00555326
0.0054654
0.00538104
0.00529534
0.00133775
0.00114078
0.000977401
0.000835008
0.000699841
0.000572608
0.000454183
0.000344448
0.000243301
0.000150745
6.67932e-05
-8.54141e-06
-7.52549e-05
-0.000133345
-0.000182814
-0.000223674
-0.000255943
-0.000279639
-0.000294784
-0.000301404
-0.000299524
-0.000289162
-0.000270336
-0.000243054
-0.000207328
-0.000163164
-0.000110561
-4.95121e-05
1.99854e-05
9.79356e-05
0.00018435
0.000279238
0.000382589
0.000494382
0.00061459
0.000743176
0.000880069
0.00102517
0.00117837
0.00133952
0.00150842
0.00168484
0.00186848
0.00205903
0.00225611
0.00245928
0.00266807
0.00288192
0.0031002
0.00332226
0.00354736
0.00377472
0.00400349
0.00423276
0.00446157
0.00468896
0.00491388
0.00513529
0.0053521
0.00556322
0.00576753
0.00596395
0.00615141
0.00632888
0.00649536
0.00664994
0.00679175
0.00691998
0.00703396
0.00713308
0.00721688
0.00728501
0.00733727
0.00737357
0.00739398
0.0073987
0.00738806
0.00736254
0.00732277
0.00726947
0.00720353
0.00712593
0.00703774
0.00694012
0.0068343
0.00672157
0.00660324
0.00648065
0.00635512
0.00622799
0.00610053
0.00597401
0.00584958
0.00572836
0.00561133
0.00549934
0.00539361
0.0052952
0.00519856
0.00509791
0.00145106
0.00123534
0.00105737
0.000903319
0.000757979
0.00062202
0.000496269
0.000380463
0.000274358
0.000177812
9.06978e-05
1.28956e-05
-5.57103e-05
-0.000115233
-0.000165781
-0.000207463
-0.00024038
-0.000264626
-0.000280294
-0.000287467
-0.00028622
-0.000276611
-0.000258691
-0.000232501
-0.000198071
-0.000155421
-0.000104562
-4.54921e-05
2.17937e-05
9.73068e-05
0.000181067
0.000273092
0.000373388
0.000481957
0.000598791
0.000723874
0.000857164
0.000998593
0.00114807
0.00130548
0.00147065
0.00164339
0.00182342
0.00201046
0.00220416
0.00240412
0.00260988
0.0028209
0.00303659
0.0032563
0.00347932
0.00370488
0.00393213
0.00416018
0.00438809
0.00461484
0.00483943
0.00506078
0.00527781
0.00548937
0.00569437
0.00589166
0.00608016
0.0062588
0.00642657
0.00658249
0.00672566
0.00685525
0.00697051
0.00707083
0.00715569
0.0072247
0.00727762
0.00731435
0.00733489
0.00733944
0.00732829
0.0073019
0.00726086
0.0072059
0.00713787
0.00705774
0.00696657
0.00686552
0.0067558
0.00663868
0.00651548
0.00638751
0.00625609
0.00612255
0.00598814
0.00585411
0.00572162
0.00559175
0.00546546
0.0053436
0.00522743
0.00511806
0.00500895
0.00489336
0.00155238
0.00131836
0.00112606
0.000960466
0.000804961
0.000660193
0.000526958
0.000404863
0.000293528
0.000192681
0.000102067
2.14426e-05
-4.9422e-05
-0.000110749
-0.000162749
-0.000205615
-0.000239531
-0.00026467
-0.000281189
-0.000289224
-0.000288896
-0.000280307
-0.000263543
-0.000238669
-0.000205736
-0.00016478
-0.00011582
-5.88579e-05
6.1146e-06
7.91119e-05
0.000160164
0.000249302
0.000346548
0.000451923
0.000565442
0.000687116
0.000816926
0.000954834
0.00110078
0.00125467
0.00141638
0.00158572
0.00176247
0.00194637
0.0021371
0.00233429
0.00253749
0.00274621
0.00295986
0.00317782
0.0033994
0.00362383
0.00385027
0.00407784
0.00430559
0.00453252
0.00475759
0.00497972
0.0051978
0.00541069
0.00561723
0.00581626
0.00600667
0.00618735
0.00635723
0.0065153
0.00666061
0.00679229
0.00690954
0.00701168
0.00709817
0.00716858
0.0072226
0.0072601
0.00728106
0.00728562
0.00727405
0.00724679
0.00720439
0.00714758
0.00707718
0.00699416
0.00689956
0.00679453
0.00668029
0.00655811
0.00642928
0.00629515
0.00615703
0.00601623
0.00587402
0.00573165
0.00559027
0.00545099
0.00531475
0.0051824
0.00505529
0.00493461
0.00481282
0.0046823
0.00163999
0.00138814
0.00118181
0.00100482
0.000839202
0.000685603
0.000544799
0.000416267
0.000299504
0.000194117
9.97342e-05
1.59966e-05
-5.74357e-05
-0.000120886
-0.000174656
-0.000219028
-0.000254265
-0.00028061
-0.00029828
-0.000307467
-0.000308334
-0.000301024
-0.000285658
-0.000262325
-0.000231094
-0.000192016
-0.000145119
-9.04051e-05
-2.78649e-05
4.25228e-05
0.000120796
0.000207
0.000301176
0.000403365
0.000513608
0.000631935
0.000758361
0.000892873
0.00103544
0.00118601
0.00134447
0.00151068
0.00168445
0.00186554
0.00205366
0.00224848
0.00244959
0.00265648
0.00286862
0.0030854
0.00330613
0.00353007
0.00375638
0.00398419
0.00421253
0.0044404
0.00466676
0.0048905
0.00511049
0.00532556
0.00553452
0.00573619
0.00592939
0.00611297
0.00628583
0.0064469
0.00659517
0.00672972
0.00684969
0.00695436
0.00704312
0.00711549
0.00717113
0.00720983
0.00723155
0.00723638
0.00722457
0.00719651
0.00715276
0.00709398
0.00702102
0.0069348
0.00683639
0.00672692
0.00660762
0.00647976
0.00634465
0.00620363
0.00605804
0.0059092
0.00575841
0.00560691
0.00545589
0.00530646
0.00515961
0.00501619
0.00487765
0.00474528
0.00461059
0.00446511
0.00171234
0.00144309
0.00122303
0.00103482
0.000859193
0.000696793
0.000548384
0.000413327
0.000290997
0.000180892
8.25296e-05
-4.55891e-06
-8.08157e-05
-0.000146659
-0.000202479
-0.000248643
-0.00028549
-0.000313328
-0.000332429
-0.000343038
-0.000345364
-0.000339589
-0.000325859
-0.000304291
-0.000274971
-0.000237965
-0.000193303
-0.000140991
-8.10163e-05
-1.33527e-05
6.20494e-05
0.000145251
0.000236313
0.000335299
0.000442271
0.000557288
0.000680391
0.000811601
0.000950915
0.00109831
0.00125371
0.00141701
0.00158805
0.00176662
0.00195248
0.0021453
0.00234471
0.00255023
0.00276135
0.00297747
0.00319793
0.00342198
0.00364882
0.00387754
0.0041072
0.00433678
0.00456522
0.00479139
0.00501414
0.00523227
0.00544455
0.00564974
0.00584664
0.00603404
0.00621078
0.00637573
0.00652783
0.00666608
0.00678958
0.00689754
0.00698927
0.00706426
0.00712208
0.0071625
0.00718541
0.00719086
0.00717907
0.00715038
0.00710533
0.00704457
0.00696892
0.0068793
0.00677677
0.00666248
0.00653764
0.00640356
0.00626156
0.006113
0.00595924
0.00580163
0.0056415
0.00548012
0.00531873
0.00515847
0.00500036
0.00484529
0.00469483
0.00455039
0.00440255
0.00424198
0.00176795
0.00148174
0.00124823
0.00104899
0.000863493
0.000692357
0.000536351
0.000394724
0.00026674
0.000151788
4.92831e-05
-4.13474e-05
-0.000120641
-0.000189106
-0.000247222
-0.000295436
-0.000334154
-0.000363743
-0.000384537
-0.000396828
-0.000400868
-0.000396873
-0.000385018
-0.000365442
-0.00033825
-0.000303515
-0.000261272
-0.000211531
-0.000154276
-8.94718e-05
-1.70544e-05
6.30533e-05
0.000150931
0.000246664
0.000350341
0.000462049
0.000581859
0.00070982
0.000845963
0.000990294
0.00114278
0.00130335
0.00147188
0.00164819
0.00183206
0.00202322
0.00222129
0.00242585
0.0026364
0.00285235
0.00307307
0.00329783
0.0035258
0.00375611
0.0039878
0.00421983
0.00445113
0.00468055
0.00490691
0.00512897
0.00534547
0.00555511
0.00575665
0.00594881
0.00613037
0.00630014
0.00645698
0.00659984
0.00672773
0.0068398
0.0069353
0.00701362
0.0070743
0.00711703
0.00714165
0.00714816
0.00713673
0.00710767
0.00706149
0.00699881
0.00692043
0.00682729
0.00672042
0.00660098
0.00647021
0.00632943
0.00617999
0.00602328
0.0058607
0.00569363
0.00552345
0.00535149
0.00517902
0.00500725
0.00483724
0.00466994
0.00450705
0.00435012
0.00418883
0.00401297
0.00180541
0.00150265
0.00125599
0.00104594
0.000850717
0.000670941
0.000507376
0.000359174
0.000225487
0.000105599
-1.17327e-06
-9.5494e-05
-0.000177999
-0.000249286
-0.000309916
-0.000360405
-0.000401228
-0.000432813
-0.000455547
-0.00046977
-0.000475771
-0.000473799
-0.000464057
-0.000446706
-0.000421862
-0.000389608
-0.000349985
-0.000303003
-0.000248642
-0.000186852
-0.000117557
-4.06653e-05
4.39256e-05
0.000136326
0.00023665
0.000345015
0.000461519
0.000586244
0.000719257
0.0008606
0.00101028
0.00116825
0.00133443
0.00150868
0.00169082
0.00188058
0.00207764
0.0022816
0.00249198
0.00270822
0.0029297
0.0031557
0.00338541
0.00361794
0.00385233
0.00408754
0.00432248
0.00455597
0.0047868
0.00501368
0.00523531
0.00545035
0.00565749
0.00585539
0.00604276
0.00621833
0.0063809
0.00652933
0.00666256
0.00677965
0.00687978
0.00696226
0.00702655
0.00707228
0.00709923
0.00710733
0.00709671
0.00706764
0.00702057
0.00695613
0.00687509
0.00677836
0.00666701
0.00654218
0.00640516
0.00625727
0.0060999
0.00593449
0.00576248
0.00558531
0.00540441
0.00522117
0.00503693
0.00485297
0.00467041
0.00449028
0.00431443
0.00414456
0.00396943
0.00377798
0.00182338
0.00150446
0.00124496
0.00102431
0.000819526
0.000631231
0.000460179
0.000305423
0.000166011
4.11331e-05
-6.99927e-05
-0.000168126
-0.000253991
-0.000328272
-0.000391603
-0.000444572
-0.000487717
-0.000521527
-0.000546437
-0.000562831
-0.000571036
-0.000571331
-0.000563944
-0.000549053
-0.000526788
-0.00049724
-0.000460455
-0.000416439
-0.000365163
-0.000306569
-0.000240566
-0.000167041
-8.58717e-05
3.08014e-06
9.99559e-05
0.000204899
0.000318043
0.000439502
0.000569381
0.000707759
0.000854681
0.00101014
0.00117409
0.00134643
0.00152701
0.00171561
0.00191193
0.0021156
0.00232617
0.00254311
0.00276581
0.00299356
0.00322556
0.00346092
0.00369868
0.00393778
0.00417712
0.00441549
0.00465163
0.00488423
0.00511194
0.00533335
0.00554709
0.00575175
0.00594597
0.0061284
0.00629775
0.00645279
0.00659238
0.00671548
0.0068212
0.00690875
0.00697751
0.00702704
0.00705703
0.00706737
0.00705811
0.00702947
0.00698189
0.00691594
0.00683237
0.00673212
0.00661622
0.00648585
0.00634231
0.00618696
0.00602124
0.00584663
0.00566462
0.00547673
0.00528446
0.00508926
0.00489257
0.00469574
0.00449998
0.0043064
0.00411702
0.0039337
0.00374427
0.00353681
0.00182057
0.00148589
0.00121383
0.00098279
0.000768633
0.000571954
0.000393504
0.00023224
8.71114e-05
-4.27862e-05
-0.00015833
-0.000260371
-0.000349722
-0.000427143
-0.000493343
-0.000548978
-0.00059465
-0.000630901
-0.000658215
-0.000677014
-0.000687664
-0.000690471
-0.000685685
-0.000673499
-0.000654057
-0.000627455
-0.000593742
-0.00055292
-0.000504949
-0.000449761
-0.000387246
-0.000317274
-0.000239696
-0.000154349
-6.10611e-05
4.03395e-05
0.00015002
0.000268134
0.000394825
0.000530209
0.00067437
0.000827347
0.000989127
0.00115965
0.00133881
0.00152642
0.00172221
0.00192586
0.00213693
0.00235492
0.00257924
0.0028092
0.00304401
0.00328278
0.00352454
0.00376823
0.0040127
0.00425675
0.00449907
0.0047383
0.00497304
0.00520182
0.00542319
0.00563569
0.00583785
0.00602824
0.00620549
0.00636826
0.00651532
0.00664554
0.0067579
0.00685155
0.00692576
0.00697999
0.00701387
0.00702719
0.00701995
0.00699233
0.00694469
0.00687759
0.00679176
0.00668811
0.0065677
0.00643171
0.00628148
0.00611839
0.00594395
0.00575968
0.00556716
0.00536797
0.00516369
0.00495588
0.00474605
0.00453566
0.00432602
0.00411833
0.00391479
0.00371744
0.00351318
0.00328919
0.0017957
0.00144566
0.00116133
0.000920139
0.000696788
0.000491872
0.000306128
0.000138421
-1.23948e-05
-0.000147322
-0.000267329
-0.000373356
-0.000466295
-0.000546984
-0.000616205
-0.000674682
-0.000723074
-0.000761975
-0.000791914
-0.000813353
-0.00082669
-0.000832257
-0.000830324
-0.0008211
-0.00080474
-0.000781343
-0.000750958
-0.00071358
-0.000669162
-0.000617618
-0.000558825
-0.000492627
-0.000418851
-0.000337306
-0.000247793
-0.000150106
-4.40406e-05
7.05972e-05
0.000193988
0.00032629
0.00046763
0.000618088
0.000777697
0.000946441
0.00112425
0.00131097
0.00150639
0.0017102
0.00192203
0.00214137
0.00236768
0.00260026
0.00283835
0.00308107
0.00332742
0.00357636
0.00382671
0.00407723
0.00432658
0.00457336
0.00481609
0.00505327
0.00528336
0.0055048
0.00571606
0.0059156
0.00610194
0.00627366
0.0064294
0.00656792
0.00668811
0.00678898
0.00686972
0.00692969
0.00696841
0.00698561
0.00698119
0.00695527
0.00690817
0.0068404
0.00675267
0.00664587
0.00652107
0.00637948
0.00622245
0.00605142
0.00586794
0.00567361
0.00547009
0.00525905
0.00504215
0.00482107
0.00459742
0.00437277
0.00414853
0.00392603
0.00370766
0.00349565
0.00327592
0.00303474
0.00174759
0.00138254
0.00108624
0.00083513
0.000602777
0.000389776
0.000196857
2.27885e-05
-0.000133675
-0.000273627
-0.000398127
-0.000508198
-0.000604812
-0.000688885
-0.000761271
-0.000822754
-0.000874051
-0.000915806
-0.00094859
-0.000972903
-0.000989173
-0.000997756
-0.000998939
-0.000992948
-0.000979945
-0.000960032
-0.000933252
-0.000899597
-0.000859008
-0.000811384
-0.000756578
-0.000694416
-0.000624698
-0.000547203
-0.000461701
-0.000367949
-0.000265706
-0.000154736
-3.48174e-05
9.42521e-05
0.000232643
0.000380482
0.00053785
0.000704774
0.000881225
0.0010671
0.00126224
0.00146636
0.00167911
0.00190005
0.00212864
0.00236421
0.002606
0.00285315
0.00310467
0.00335949
0.00361642
0.00387419
0.00413142
0.00438666
0.00463839
0.00488501
0.00512493
0.00535648
0.00557805
0.00578799
0.00598472
0.00616668
0.00633241
0.00648054
0.00660984
0.00671921
0.00680771
0.00687458
0.00691924
0.00694133
0.00694066
0.00691728
0.00687143
0.0068036
0.00671445
0.00660487
0.00647592
0.00632883
0.00616498
0.00598588
0.00579312
0.00558839
0.00537343
0.00515
0.0049199
0.00468489
0.00444672
0.00420709
0.00396751
0.00372945
0.00349551
0.00326812
0.0030322
0.00277305
0.00167502
0.00129534
0.000987371
0.000726567
0.000485413
0.000264492
6.45257e-05
-0.000115816
-0.000277877
-0.000422838
-0.000551845
-0.000666006
-0.000766373
-0.000853939
-0.000929623
-0.000994272
-0.00104865
-0.00109347
-0.00112932
-0.00115674
-0.0011762
-0.00118806
-0.00119264
-0.00119016
-0.00118081
-0.00116468
-0.00114181
-0.00111219
-0.00107574
-0.00103234
-0.000981835
-0.000924015
-0.000858658
-0.000785511
-0.000704308
-0.000614772
-0.00051662
-0.000409574
-0.000293366
-0.00016775
-3.25064e-05
0.000112541
0.000267521
0.000432513
0.000607533
0.000792534
0.000987385
0.00119187
0.00140566
0.00162837
0.00185946
0.00209831
0.00234418
0.0025962
0.0028534
0.00311469
0.00337888
0.00364466
0.00391061
0.00417525
0.00443696
0.00469412
0.004945
0.0051879
0.00542105
0.00564272
0.0058512
0.0060448
0.00622194
0.00638112
0.00652095
0.00664021
0.00673783
0.00681292
0.00686478
0.00689293
0.0068971
0.00687723
0.00683351
0.00676635
0.0066764
0.00656452
0.00643177
0.0062794
0.00610882
0.00592159
0.00571937
0.00550395
0.00527715
0.00504085
0.00479696
0.00454738
0.00429399
0.00403861
0.00378293
0.00352851
0.00327819
0.00303464
0.0027817
0.00250365
0.00157686
0.00118291
0.000863552
0.000593293
0.000343544
0.000114875
-9.20074e-05
-0.000278527
-0.000446124
-0.000596066
-0.000729585
-0.000847876
-0.00095207
-0.00104323
-0.00112234
-0.00119031
-0.00124796
-0.00129603
-0.00133517
-0.00136595
-0.00138885
-0.00140427
-0.00141254
-0.00141389
-0.00140851
-0.00139649
-0.00137786
-0.00135261
-0.00132065
-0.00128183
-0.00123597
-0.00118285