/*--------------------------------*- C++ -*----------------------------------*\
| =========                 |                                                 |
| \\      /  F ield         | OpenFOAM: The Open Source CFD Toolbox           |
|  \\    /   O peration     | Version:  2512                                  |
|   \\  /    A nd           | Website:  www.openfoam.com                      |
|    \\/     M anipulation  |                                                 |
\*---------------------------------------------------------------------------*/
FoamFile
{
    version     2.0;
    format      ascii;
    arch        "LSB;label=32;scalar=64";
    class       surfaceScalarField;
    location    "0.4";
    object      phi;
}
// * * * * * * * * * * * * * * * * * * * * * * * * * * * * * * * * * * * * * //

dimensions      [0 3 -1 0 0 0 0];

oriented        oriented;

internalField   nonuniform List<scalar> 
19800
(
7.39459e-11
-7.39002e-11
2.64206e-10
-1.90263e-10
4.84367e-10
-2.20166e-10
6.43118e-10
-1.58759e-10
6.99147e-10
-5.60213e-11
6.42195e-10
5.69406e-11
4.72308e-10
1.69906e-10
1.95417e-10
2.76882e-10
-1.80824e-10
3.76268e-10
-6.49033e-10
4.68185e-10
-1.20095e-09
5.51931e-10
-1.82867e-09
6.27714e-10
-2.52425e-09
6.95568e-10
-3.28025e-09
7.56013e-10
-4.08953e-09
8.09276e-10
-4.94547e-09
8.55927e-10
-5.84178e-09
8.9632e-10
-6.7729e-09
9.31102e-10
-7.73297e-09
9.6007e-10
-8.71672e-09
9.83766e-10
-9.71951e-09
1.00279e-09
-1.07367e-08
1.01715e-09
-1.17639e-08
1.02721e-09
-1.27972e-08
1.0334e-09
-1.3833e-08
1.0358e-09
-1.48675e-08
1.03445e-09
-1.5897e-08
1.02955e-09
-1.69184e-08
1.02141e-09
-1.79284e-08
1.01003e-09
-1.89239e-08
9.95462e-10
-1.99018e-08
9.77863e-10
-2.0859e-08
9.57263e-10
-2.17927e-08
9.33679e-10
-2.26997e-08
9.0701e-10
-2.35769e-08
8.7715e-10
-2.44211e-08
8.44274e-10
-2.52297e-08
8.08586e-10
-2.59997e-08
7.6998e-10
-2.67279e-08
7.2817e-10
-2.7411e-08
6.83137e-10
-2.80462e-08
6.35156e-10
-2.86305e-08
5.84348e-10
-2.91611e-08
5.30629e-10
-2.96352e-08
4.74024e-10
-3.00498e-08
4.14683e-10
-3.04025e-08
3.52662e-10
-3.06905e-08
2.87979e-10
-3.09112e-08
2.20779e-10
-3.10626e-08
1.51314e-10
-3.11424e-08
7.98545e-11
-3.11491e-08
6.68306e-12
-3.10812e-08
-6.79462e-11
-3.09373e-08
-1.4383e-10
-3.07166e-08
-2.20701e-10
-3.04185e-08
-2.98079e-10
-3.00432e-08
-3.75343e-10
-2.95912e-08
-4.51966e-10
-2.90636e-08
-5.2758e-10
-2.84618e-08
-6.01821e-10
-2.77876e-08
-6.74208e-10
-2.70434e-08
-7.44225e-10
-2.6232e-08
-8.11391e-10
-2.53567e-08
-8.75241e-10
-2.44214e-08
-9.35293e-10
-2.34304e-08
-9.91036e-10
-2.23885e-08
-1.04193e-09
-2.1301e-08
-1.08745e-09
-2.01739e-08
-1.1271e-09
-1.90134e-08
-1.16054e-09
-1.78259e-08
-1.1875e-09
-1.66181e-08
-1.2078e-09
-1.53969e-08
-1.22116e-09
-1.41696e-08
-1.22731e-09
-1.29436e-08
-1.226e-09
-1.17265e-08
-1.21709e-09
-1.0526e-08
-1.20053e-09
-9.34966e-09
-1.17631e-09
-8.20525e-09
-1.14441e-09
-7.10031e-09
-1.10494e-09
-6.04222e-09
-1.0581e-09
-5.03797e-09
-1.00424e-09
-4.09416e-09
-9.43812e-10
-3.21685e-09
-8.77306e-10
-2.41161e-09
-8.05241e-10
-1.68348e-09
-7.28128e-10
-1.03698e-09
-6.46507e-10
-4.75977e-10
-5.61005e-10
-3.58894e-12
-4.72384e-10
3.77985e-10
-3.8157e-10
6.67602e-10
-2.8962e-10
8.65366e-10
-1.97765e-10
9.72906e-10
-1.07534e-10
9.93833e-10
-2.09222e-11
9.34507e-10
5.93262e-11
8.05198e-10
1.29305e-10
6.21668e-10
1.83528e-10
4.07411e-10
2.14254e-10
1.97266e-10
2.10137e-10
4.24919e-11
1.54762e-10
4.24811e-11
1.11603e-10
-1.85513e-10
3.41007e-10
-4.19639e-10
5.76252e-10
-4.55416e-10
6.8464e-10
-2.6715e-10
5.85364e-10
4.32617e-11
2.37562e-10
4.04754e-10
-3.7254e-10
7.79965e-10
-1.2446e-09
1.14896e-09
-2.36998e-09
1.50163e-09
-3.73429e-09
1.83252e-09
-5.32157e-09
2.13921e-09
-7.11375e-09
2.41988e-09
-9.09249e-09
2.67432e-09
-1.12396e-08
2.90311e-09
-1.35367e-08
3.1064e-09
-1.59664e-08
3.28569e-09
-1.85122e-08
3.44204e-09
-2.11575e-08
3.57641e-09
-2.38872e-08
3.68979e-09
-2.6687e-08
3.78354e-09
-2.95429e-08
3.85869e-09
-3.24419e-08
3.91617e-09
-3.53718e-08
3.95709e-09
-3.83209e-08
3.98242e-09
-4.12778e-08
3.99274e-09
-4.4232e-08
3.98867e-09
-4.71733e-08
3.97082e-09
-5.00917e-08
3.93984e-09
-5.29777e-08
3.89601e-09
-5.58218e-08
3.83957e-09
-5.86149e-08
3.77097e-09
-6.13482e-08
3.69048e-09
-6.40125e-08
3.59802e-09
-6.6599e-08
3.49345e-09
-6.90987e-08
3.37693e-09
-7.15032e-08
3.24872e-09
-7.38035e-08
3.10887e-09
-7.59908e-08
2.95729e-09
-7.80565e-08
2.79387e-09
-7.99919e-08
2.61861e-09
-8.17885e-08
2.43174e-09
-8.34378e-08
2.23364e-09
-8.49318e-08
2.02453e-09
-8.62623e-08
1.80456e-09
-8.74216e-08
1.57406e-09
-8.84024e-08
1.33345e-09
-8.91976e-08
1.08316e-09
-8.98006e-08
8.23767e-10
-9.02054e-08
5.56126e-10
-9.04068e-08
2.81254e-10
-9.04002e-08
1.44843e-13
-9.01819e-08
-2.86229e-10
-8.9749e-08
-5.7678e-10
-8.90995e-08
-8.7016e-10
-8.82329e-08
-1.16477e-09
-8.71493e-08
-1.45887e-09
-8.58506e-08
-1.75074e-09
-8.43394e-08
-2.0387e-09
-8.26202e-08
-2.32109e-09
-8.06982e-08
-2.59617e-09
-7.85803e-08
-2.8621e-09
-7.62747e-08
-3.11705e-09
-7.37908e-08
-3.35915e-09
-7.11395e-08
-3.58657e-09
-6.83331e-08
-3.79745e-09
-6.53851e-08
-3.98994e-09
-6.23103e-08
-4.16221e-09
-5.91248e-08
-4.31263e-09
-5.58455e-08
-4.4398e-09
-5.24905e-08
-4.54254e-09
-4.90784e-08
-4.61982e-09
-4.56289e-08
-4.67065e-09
-4.21621e-08
-4.69417e-09
-3.86984e-08
-4.6897e-09
-3.52587e-08
-4.65675e-09
-3.18642e-08
-4.59511e-09
-2.85357e-08
-4.50475e-09
-2.52942e-08
-4.3859e-09
-2.21601e-08
-4.23906e-09
-1.91531e-08
-4.06506e-09
-1.62923e-08
-3.86506e-09
-1.35956e-08
-3.64052e-09
-1.10797e-08
-3.39317e-09
-8.76008e-09
-3.12491e-09
-6.65038e-09
-2.83783e-09
-4.76261e-09
-2.53428e-09
-3.1067e-09
-2.2169e-09
-1.69032e-09
-1.88877e-09
-5.18463e-10
-1.55344e-09
4.07026e-10
-1.21511e-09
1.08802e-09
-8.78755e-10
1.53094e-09
-5.50451e-10
1.74785e-09
-2.37838e-10
1.75792e-09
4.92594e-11
1.58932e-09
2.97907e-10
1.28175e-09
4.91094e-10
8.89355e-10
6.06642e-10
4.83501e-10
6.15992e-10
1.52892e-10
4.85377e-10
1.95364e-10
6.86796e-11
-2.54198e-10
1.78808e-10
-5.2976e-10
2.22688e-10
-4.99279e-10
7.14596e-11
-1.15925e-10
-3.68112e-10
4.82828e-10
-1.15087e-09
1.18751e-09
-2.30383e-09
1.93294e-09
-3.83432e-09
2.67945e-09
-5.73626e-09
3.40353e-09
-7.9951e-09
4.09137e-09
-1.05907e-08
4.73475e-09
-1.34994e-08
5.32862e-09
-1.66961e-08
5.87107e-09
-2.01542e-08
6.36118e-09
-2.38478e-08
6.80002e-09
-2.77504e-08
7.18829e-09
-3.18365e-08
7.52817e-09
-3.60815e-08
7.82141e-09
-4.04617e-08
8.07001e-09
-4.49544e-08
8.2762e-09
-4.95378e-08
8.44209e-09
-5.41913e-08
8.56971e-09
-5.88953e-08
8.66102e-09
-6.36306e-08
8.71781e-09
-6.83794e-08
8.74149e-09
-7.31242e-08
8.73349e-09
-7.78485e-08
8.69513e-09
-8.2536e-08
8.62732e-09
-8.71709e-08
8.53093e-09
-9.17381e-08
8.40677e-09
-9.62226e-08
8.25539e-09
-1.00609e-07
8.0772e-09
-1.04884e-07
7.87246e-09
-1.09031e-07
7.64124e-09
-1.13038e-07
7.3837e-09
-1.1689e-07
7.10016e-09
-1.20572e-07
6.79085e-09
-1.2407e-07
6.45571e-09
-1.27371e-07
6.09471e-09
-1.3046e-07
5.70812e-09
-1.33325e-07
5.29641e-09
-1.35951e-07
4.86001e-09
-1.38326e-07
4.39946e-09
-1.40437e-07
3.91548e-09
-1.42272e-07
3.40891e-09
-1.43819e-07
2.88062e-09
-1.45068e-07
2.33175e-09
-1.46008e-07
1.76385e-09
-1.46631e-07
1.17869e-09
-1.46928e-07
5.78236e-10
-1.46892e-07
-3.53179e-11
-1.46519e-07
-6.5958e-10
-1.45803e-07
-1.292e-09
-1.44744e-07
-1.92974e-09
-1.43339e-07
-2.56952e-09
-1.4159e-07
-3.20779e-09
-1.395e-07
-3.841e-09
-1.37073e-07
-4.46556e-09
-1.34316e-07
-5.07777e-09
-1.31239e-07
-5.67379e-09
-1.27851e-07
-6.24966e-09
-1.24167e-07
-6.80144e-09
-1.20201e-07
-7.32517e-09
-1.1597e-07
-7.8169e-09
-1.11495e-07
-8.27268e-09
-1.06796e-07
-8.6887e-09
-1.01897e-07
-9.06125e-09
-9.68231e-08
-9.38694e-09
-9.16002e-08
-9.66271e-09
-8.62569e-08
-9.88585e-09
-8.08227e-08
-1.0054e-08
-7.53283e-08
-1.01651e-08
-6.98051e-08
-1.02173e-08
-6.42854e-08
-1.02094e-08
-5.88017e-08
-1.01404e-08
-5.33869e-08
-1.00099e-08
-4.80737e-08
-9.81802e-09
-4.28942e-08
-9.56537e-09
-3.78801e-08
-9.25314e-09
-3.30621e-08
-8.8831e-09
-2.84694e-08
-8.4577e-09
-2.413e-08
-7.97995e-09
-2.00697e-08
-7.45343e-09
-1.63123e-08
-6.88227e-09
-1.28791e-08
-6.27109e-09
-9.78818e-09
-5.62518e-09
-7.05456e-09
-4.95053e-09
-4.68934e-09
-4.25398e-09
-2.69929e-09
-3.54348e-09
-1.08617e-09
-2.82824e-09
1.5418e-10
-2.11911e-09
1.03288e-09
-1.42915e-09
1.56931e-09
-7.74274e-10
1.7928e-09
-1.7424e-10
1.74458e-09
3.46113e-10
1.48011e-09
7.55551e-10
1.07159e-09
1.01516e-09
6.09955e-10
1.07761e-09
2.06045e-10
8.89284e-10
4.01406e-10
1.70721e-11
-2.71281e-10
-3.67443e-11
-4.7595e-10
-2.6475e-10
-2.71286e-10
-7.78811e-10
3.98135e-10
-1.66601e-09
1.37004e-09
-2.98335e-09
2.50487e-09
-4.76173e-09
3.71131e-09
-7.01214e-09
4.92987e-09
-9.73049e-09
6.12189e-09
-1.29019e-08
7.26279e-09
-1.65041e-08
8.337e-09
-2.05101e-08
9.33457e-09
-2.48893e-08
1.02502e-08
-2.96099e-08
1.10818e-08
-3.46389e-08
1.1829e-08
-3.99432e-08
1.24926e-08
-4.54904e-08
1.30753e-08
-5.12483e-08
1.35794e-08
-5.71863e-08
1.4008e-08
-6.32745e-08
1.43644e-08
-6.94841e-08
1.46517e-08
-7.57876e-08
1.48732e-08
-8.21586e-08
1.5032e-08
-8.85716e-08
1.51308e-08
-9.50024e-08
1.51722e-08
-1.01427e-07
1.51584e-08
-1.07824e-07
1.50914e-08
-1.14169e-07
1.49731e-08
-1.20443e-07
1.48046e-08
-1.26623e-07
1.45873e-08
-1.3269e-07
1.43223e-08
-1.38623e-07
1.40103e-08
-1.44403e-07
1.36517e-08
-1.50008e-07
1.32468e-08
-1.55421e-07
1.27963e-08
-1.60621e-07
1.23004e-08
-1.6559e-07
1.17593e-08
-1.70307e-07
1.11733e-08
-1.74755e-07
1.05428e-08
-1.78915e-07
9.86813e-09
-1.82769e-07
9.15002e-09
-1.86298e-07
8.3894e-09
-1.89486e-07
7.58727e-09
-1.92315e-07
6.74485e-09
-1.9477e-07
5.86375e-09
-1.96835e-07
4.94585e-09
-1.98497e-07
3.99324e-09
-1.99741e-07
3.00849e-09
-2.00558e-07
1.9947e-09
-2.00935e-07
9.55388e-10
-2.00864e-07
-1.05669e-10
-2.0034e-07
-1.18438e-09
-1.99355e-07
-2.27621e-09
-1.97909e-07
-3.37616e-09
-1.96e-07
-4.47874e-09
-1.93629e-07
-5.57817e-09
-1.90802e-07
-6.66849e-09
-1.87524e-07
-7.7435e-09
-1.83805e-07
-8.79679e-09
-1.79657e-07
-9.82178e-09
-1.75095e-07
-1.08118e-08
-1.70136e-07
-1.176e-08
-1.64802e-07
-1.26598e-08
-1.59114e-07
-1.35044e-08
-1.531e-07
-1.42872e-08
-1.46787e-07
-1.50018e-08
-1.40206e-07
-1.5642e-08
-1.3339e-07
-1.62023e-08
-1.26376e-07
-1.66773e-08
-1.19199e-07
-1.70624e-08
-1.119e-07
-1.73535e-08
-1.04518e-07
-1.7547e-08
-9.70952e-08
-1.764e-08
-8.96742e-08
-1.76304e-08
-8.22978e-08
-1.75168e-08
-7.50092e-08
-1.72985e-08
-6.78514e-08
-1.69759e-08
-6.08667e-08
-1.655e-08
-5.40967e-08
-1.60231e-08
-4.75816e-08
-1.53982e-08
-4.13599e-08
-1.46794e-08
-3.54679e-08
-1.38719e-08
-2.99397e-08
-1.29817e-08
-2.48061e-08
-1.20159e-08
-2.00946e-08
-1.09825e-08
-1.58289e-08
-9.89088e-09
-1.2028e-08
-8.75143e-09
-8.70589e-09
-7.57613e-09
-5.87067e-09
-6.37871e-09
-3.52389e-09
-5.17501e-09
-1.65953e-09
-3.98347e-09
-2.62838e-10
-2.82584e-09
6.90989e-10
-1.72811e-09
1.2384e-09
-7.21661e-10
1.42926e-09
1.55247e-10
1.32884e-09
8.5597e-10
1.01998e-09
1.32402e-09
6.05338e-10
1.49224e-09
2.10916e-10
1.2837e-09
6.12323e-10
-4.47692e-11
-2.26504e-10
-2.95132e-10
-2.25573e-10
-8.44065e-10
2.77638e-10
-1.78426e-09
1.33833e-09
-3.18916e-09
2.77493e-09
-5.1093e-09
4.42499e-09
-7.57333e-09
6.17535e-09
-1.05921e-08
7.94869e-09
-1.41607e-08
9.69039e-09
-1.82633e-08
1.13655e-08
-2.28755e-08
1.29492e-08
-2.79674e-08
1.44264e-08
-3.35048e-08
1.57876e-08
-3.94511e-08
1.70281e-08
-4.57682e-08
1.81461e-08
-5.24177e-08
1.91422e-08
-5.9361e-08
2.00186e-08
-6.65602e-08
2.07786e-08
-7.39784e-08
2.14261e-08
-8.15794e-08
2.19654e-08
-8.93284e-08
2.24007e-08
-9.71919e-08
2.27367e-08
-1.05137e-07
2.29775e-08
-1.13133e-07
2.31268e-08
-1.2115e-07
2.31886e-08
-1.29157e-07
2.31661e-08
-1.37128e-07
2.3062e-08
-1.45034e-07
2.28789e-08
-1.52848e-07
2.2619e-08
-1.60545e-07
2.22841e-08
-1.68098e-07
2.18756e-08
-1.75483e-07
2.13947e-08
-1.82673e-07
2.08423e-08
-1.89646e-07
2.0219e-08
-1.96375e-07
1.95256e-08
-2.02837e-07
1.87626e-08
-2.09008e-07
1.79306e-08
-2.14865e-07
1.703e-08
-2.20384e-07
1.60615e-08
-2.25542e-07
1.5026e-08
-2.30316e-07
1.39247e-08
-2.34686e-07
1.27587e-08
-2.38628e-07
1.15299e-08
-2.42124e-07
1.02404e-08
-2.45153e-07
8.89276e-09
-2.47697e-07
7.48976e-09
-2.49738e-07
6.03487e-09
-2.51262e-07
4.53222e-09
-2.52254e-07
2.98654e-09
-2.52702e-07
1.40301e-09
-2.52595e-07
-2.12589e-10
-2.51925e-07
-1.85387e-09
-2.50688e-07
-3.51389e-09
-2.48879e-07
-5.18511e-09
-2.46498e-07
-6.85937e-09
-2.43548e-07
-8.52806e-09
-2.40034e-07
-1.01822e-08
-2.35965e-07
-1.18126e-08
-2.31353e-07
-1.34094e-08
-2.26211e-07
-1.49629e-08
-2.2056e-07
-1.64629e-08
-2.14421e-07
-1.78993e-08
-2.07819e-07
-1.92621e-08
-2.00782e-07
-2.05413e-08
-1.93342e-07
-2.1727e-08
-1.85534e-07
-2.28097e-08
-1.77396e-07
-2.37803e-08
-1.68967e-07
-2.46304e-08
-1.60293e-07
-2.53522e-08
-1.51416e-07
-2.59387e-08
-1.42386e-07
-2.63836e-08
-1.33251e-07
-2.66817e-08
-1.24063e-07
-2.68287e-08
-1.14872e-07
-2.68215e-08
-1.0573e-07
-2.6658e-08
-9.66913e-08
-2.63376e-08
-8.78066e-08
-2.58606e-08
-7.91276e-08
-2.5229e-08
-7.07048e-08
-2.4446e-08
-6.25866e-08
-2.35163e-08
-5.48199e-08
-2.24462e-08
-4.74485e-08
-2.12433e-08
-4.05133e-08
-1.99168e-08
-3.40517e-08
-1.84775e-08
-2.80967e-08
-1.69376e-08
-2.26763e-08
-1.53112e-08
-1.78135e-08
-1.36143e-08
-1.35244e-08
-1.18651e-08
-9.81882e-09
-1.00843e-08
-6.69823e-09
-8.29561e-09
-4.15547e-09
-6.52624e-09
-2.17341e-09
-4.80792e-09
-7.23674e-10
-3.17785e-09
2.34703e-10
-1.68005e-09
7.56809e-10
-3.66867e-10
9.13565e-10
6.99211e-10
7.93705e-10
1.44388e-09
5.06221e-10
1.77972e-09
1.84719e-10
1.6052e-09
7.97043e-10
-1.20743e-10
-1.05774e-10
-5.92996e-10
2.46694e-10
-1.49794e-09
1.18258e-09
-2.90636e-09
2.74676e-09
-4.87573e-09
4.7443e-09
-7.44587e-09
6.99512e-09
-1.06392e-08
9.36866e-09
-1.44615e-08
1.1771e-08
-1.89065e-08
1.41354e-08
-2.39551e-08
1.64142e-08
-2.95813e-08
1.85753e-08
-3.57517e-08
2.05968e-08
-4.24288e-08
2.24647e-08
-4.95722e-08
2.41715e-08
-5.71395e-08
2.57134e-08
-6.50879e-08
2.70905e-08
-7.33737e-08
2.83044e-08
-8.1954e-08
2.93589e-08
-9.07863e-08
3.02585e-08
-9.98295e-08
3.10086e-08
-1.09043e-07
3.16146e-08
-1.18389e-07
3.2082e-08
-1.27828e-07
3.24165e-08
-1.37324e-07
3.2623e-08
-1.46842e-07
3.27063e-08
-1.56346e-07
3.26709e-08
-1.65805e-07
3.25206e-08
-1.75185e-07
3.22586e-08
-1.84454e-07
3.1888e-08
-1.93581e-07
3.14112e-08
-2.02535e-07
3.08303e-08
-2.11288e-07
3.01468e-08
-2.19807e-07
2.93621e-08
-2.28066e-07
2.84773e-08
-2.36034e-07
2.74936e-08
-2.43683e-07
2.64115e-08
-2.50984e-07
2.5232e-08
-2.5791e-07
2.39561e-08
-2.64434e-07
2.2585e-08
-2.70527e-07
2.11198e-08
-2.76165e-07
1.95622e-08
-2.81321e-07
1.79145e-08
-2.8597e-07
1.61791e-08
-2.90089e-07
1.43591e-08
-2.93654e-07
1.24582e-08
-2.96645e-07
1.04806e-08
-2.99041e-07
8.43133e-09
-3.00825e-07
6.31625e-09
-3.01981e-07
4.14198e-09
-3.02494e-07
1.9159e-09
-3.02352e-07
-3.53867e-10
-3.01548e-07
-2.65839e-09
-3.00074e-07
-4.98789e-09
-2.97927e-07
-7.33183e-09
-2.95108e-07
-9.67889e-09
-2.91618e-07
-1.20172e-08
-2.87466e-07
-1.43344e-08
-2.82661e-07
-1.66174e-08
-2.77218e-07
-1.88529e-08
-2.71154e-07
-2.10272e-08
-2.6449e-07
-2.31263e-08
-2.57253e-07
-2.51362e-08
-2.49473e-07
-2.7043e-08
-2.41181e-07
-2.8833e-08
-2.32415e-07
-3.04925e-08
-2.23217e-07
-3.20084e-08
-2.13629e-07
-3.33684e-08
-2.03698e-07
-3.45607e-08
-1.93476e-07
-3.55747e-08
-1.83014e-07
-3.64006e-08
-1.72368e-07
-3.70298e-08
-1.61594e-07
-3.74552e-08
-1.50752e-07
-3.76708e-08
-1.39901e-07
-3.76724e-08
-1.29102e-07
-3.74573e-08
-1.18415e-07
-3.70245e-08
-1.079e-07
-3.63749e-08
-9.76184e-08
-3.55111e-08
-8.76267e-08
-3.44377e-08
-7.79817e-08
-3.31613e-08
-6.87373e-08
-3.16906e-08
-5.99443e-08
-3.00363e-08
-5.16498e-08
-2.82113e-08
-4.38967e-08
-2.62305e-08
-3.67232e-08
-2.41111e-08
-3.01614e-08
-2.18729e-08
-2.42376e-08
-1.95382e-08
-1.89705e-08
-1.71322e-08
-1.43712e-08
-1.46836e-08
-1.0442e-08
-1.22248e-08
-7.17532e-09
-9.79296e-09
-4.55279e-09
-7.43045e-09
-2.54421e-09
-5.18645e-09
-1.10621e-09
-3.11806e-09
-1.8108e-10
-1.29201e-09
3.04693e-10
2.13437e-10
4.42155e-10
1.30642e-09
3.42116e-10
1.87976e-09
1.38994e-10
1.80832e-09
9.36038e-10
-2.06387e-10
1.00629e-10
-9.19703e-10
9.59975e-10
-2.20357e-09
2.46647e-09
-4.108e-09
4.65117e-09
-6.67276e-09
7.30907e-09
-9.92431e-09
1.02467e-08
-1.38762e-08
1.33206e-08
-1.85283e-08
1.64231e-08
-2.38685e-08
1.94755e-08
-2.98751e-08
2.24207e-08
-3.65178e-08
2.52181e-08
-4.37608e-08
2.78397e-08
-5.15631e-08
3.02671e-08
-5.98807e-08
3.24891e-08
-6.86678e-08
3.45005e-08
-7.78768e-08
3.62995e-08
-8.74604e-08
3.7888e-08
-9.73712e-08
3.92697e-08
-1.07562e-07
4.04495e-08
-1.17987e-07
4.14337e-08
-1.28602e-07
4.2229e-08
-1.39362e-07
4.2842e-08
-1.50224e-07
4.32791e-08
-1.61149e-07
4.3547e-08
-1.72094e-07
4.36517e-08
-1.83021e-07
4.35982e-08
-1.93892e-07
4.33916e-08
-2.0467e-07
4.30363e-08
-2.15318e-07
4.2536e-08
-2.258e-07
4.18937e-08
-2.36082e-07
4.1112e-08
-2.46129e-07
4.01934e-08
-2.55906e-07
3.91396e-08
-2.65381e-07
3.79521e-08
-2.7452e-07
3.66323e-08
-2.8329e-07
3.51815e-08
-2.91659e-07
3.36011e-08
-2.99595e-07
3.18923e-08
-3.07067e-07
3.00569e-08
-3.14044e-07
2.80968e-08
-3.20496e-07
2.60144e-08
-3.26394e-07
2.38127e-08
-3.3171e-07
2.14951e-08
-3.36417e-07
1.9066e-08
-3.40489e-07
1.65305e-08
-3.43903e-07
1.38942e-08
-3.46636e-07
1.1164e-08
-3.48667e-07
8.34781e-09
-3.4998e-07
5.45448e-09
-3.50558e-07
2.49377e-09
-3.50388e-07
-5.23532e-10
-3.49461e-07
-3.58548e-09
-3.4777e-07
-6.67912e-09
-3.45311e-07
-9.79056e-09
-3.42085e-07
-1.2905e-08
-3.38095e-07
-1.60068e-08
-3.3335e-07
-1.90796e-08
-3.27861e-07
-2.21064e-08
-3.21644e-07
-2.50695e-08
-3.14721e-07
-2.79511e-08
-3.07114e-07
-3.07327e-08
-2.98854e-07
-3.33963e-08
-2.89974e-07
-3.59234e-08
-2.80511e-07
-3.8296e-08
-2.70507e-07
-4.04964e-08
-2.60008e-07
-4.25076e-08
-2.49063e-07
-4.43133e-08
-2.37725e-07
-4.58983e-08
-2.26051e-07
-4.72485e-08
-2.14101e-07
-4.83514e-08
-2.01935e-07
-4.91957e-08
-1.89618e-07
-4.97719e-08
-1.77216e-07
-5.00725e-08
-1.64797e-07
-5.00919e-08
-1.52428e-07
-4.98266e-08
-1.40177e-07
-4.92755e-08
-1.28112e-07
-4.84397e-08
-1.163e-07
-4.73229e-08
-1.04807e-07
-4.5931e-08
-9.36951e-08
-4.4273e-08
-8.30255e-08
-4.23602e-08
-7.28551e-08
-4.02067e-08
-6.32368e-08
-3.78296e-08
-5.42187e-08
-3.52486e-08
-4.58435e-08
-3.24864e-08
-3.81475e-08
-2.95689e-08
-3.11601e-08
-2.65256e-08
-2.49028e-08
-2.33896e-08
-1.93883e-08
-2.0198e-08
-1.46202e-08
-1.6993e-08
-1.05914e-08
-1.38218e-08
-7.28339e-09
-1.07384e-08
-4.66564e-09
-7.80421e-09
-2.69412e-09
-5.08959e-09
-1.31054e-09
-2.67558e-09
-4.41206e-10
-6.55901e-10
4.39927e-12
8.60815e-10
1.35242e-10
1.74892e-09
8.14206e-11
1.86214e-09
1.01746e-09
-2.98423e-10
3.99039e-10
-1.26426e-09
1.92583e-09
-2.94117e-09
4.14338e-09
-5.35818e-09
7.06819e-09
-8.53686e-09
1.04877e-08
-1.24906e-08
1.42003e-08
-1.72206e-08
1.80506e-08
-2.2719e-08
2.19215e-08
-2.89676e-08
2.57241e-08
-3.59395e-08
2.93926e-08
-4.36005e-08
3.28791e-08
-5.19108e-08
3.61501e-08
-6.08263e-08
3.91825e-08
-7.02993e-08
4.19621e-08
-8.02803e-08
4.44815e-08
-9.07187e-08
4.67378e-08
-1.01563e-07
4.87322e-08
-1.12761e-07
5.04683e-08
-1.24264e-07
5.19519e-08
-1.3602e-07
5.31897e-08
-1.4798e-07
5.41893e-08
-1.60097e-07
5.49585e-08
-1.72323e-07
5.55052e-08
-1.84613e-07
5.58369e-08
-1.96921e-07
5.59606e-08
-2.09206e-07
5.58828e-08
-2.21424e-07
5.56097e-08
-2.33534e-07
5.51462e-08
-2.45495e-07
5.44969e-08
-2.57267e-07
5.36658e-08
-2.68811e-07
5.26563e-08
-2.80089e-07
5.14711e-08
-2.91062e-07
5.01125e-08
-3.01693e-07
4.85829e-08
-3.11944e-07
4.68838e-08
-3.2178e-07
4.50171e-08
-3.31163e-07
4.29846e-08
-3.40059e-07
4.07883e-08
-3.48433e-07
3.84305e-08
-3.5625e-07
3.59138e-08
-3.63477e-07
3.32415e-08
-3.70082e-07
3.04176e-08
-3.76034e-07
2.74467e-08
-3.81302e-07
2.43345e-08
-3.85859e-07
2.10875e-08
-3.89678e-07
1.77133e-08
-3.92735e-07
1.42209e-08
-3.95008e-07
1.06203e-08
-3.96476e-07
6.9227e-09
-3.97123e-07
3.14075e-09
-3.96935e-07
-7.11757e-10
-3.95901e-07
-4.61962e-09
-3.94013e-07
-8.5664e-09
-3.91269e-07
-1.25345e-08
-3.87669e-07
-1.65052e-08
-3.83217e-07
-2.04587e-08
-3.77922e-07
-2.43745e-08
-3.71798e-07
-2.82309e-08
-3.64862e-07
-3.20057e-08
-3.57136e-07
-3.56763e-08
-3.48649e-07
-3.92197e-08
-3.39433e-07
-4.26129e-08
-3.29523e-07
-4.58329e-08
-3.18962e-07
-4.88569e-08
-3.07796e-07
-5.16627e-08
-2.96075e-07
-5.42288e-08
-2.83853e-07
-5.6535e-08
-2.71189e-07
-5.8562e-08
-2.58146e-07
-6.02923e-08
-2.44787e-07
-6.17098e-08
-2.31182e-07
-6.28005e-08
-2.17402e-07
-6.35526e-08
-2.03518e-07
-6.39565e-08
-1.89604e-07
-6.40053e-08
-1.75736e-07
-6.36947e-08
-1.61989e-07
-6.30232e-08
-1.48436e-07
-6.19923e-08
-1.35152e-07
-6.06066e-08
-1.22209e-07
-5.8874e-08
-1.09677e-07
-5.68055e-08
-9.76214e-08
-5.44156e-08
-8.61059e-08
-5.17223e-08
-7.51887e-08
-4.87468e-08
-6.49229e-08
-4.55143e-08
-5.53556e-08
-4.20536e-08
-4.65273e-08
-3.83973e-08
-3.84705e-08
-3.45824e-08
-3.12096e-08
-3.06505e-08
-2.47597e-08
-2.66479e-08
-1.9126e-08
-2.26267e-08
-1.43028e-08
-1.86451e-08
-1.02725e-08
-1.47687e-08
-7.00545e-09
-1.10713e-08
-4.45834e-09
-7.6367e-09
-2.57403e-09
-4.5599e-09
-1.28052e-09
-1.94942e-09
-4.90071e-10
7.03673e-11
-9.83487e-11
1.3572e-09
1.71011e-11
1.7467e-09
1.03456e-09
-3.93524e-10
7.92584e-10
-1.61732e-09
3.1496e-09
-3.69453e-09
6.22056e-09
-6.63301e-09
1.00067e-08
-1.04365e-08
1.42912e-08
-1.51027e-08
1.88665e-08
-2.06223e-08
2.35702e-08
-2.69771e-08
2.82762e-08
-3.41414e-08
3.28885e-08
-4.20826e-08
3.73337e-08
-5.07615e-08
4.1558e-08
-6.01338e-08
4.55224e-08
-7.01515e-08
4.92002e-08
-8.07638e-08
5.25745e-08
-9.19175e-08
5.56352e-08
-1.03558e-07
5.83786e-08
-1.15631e-07
6.08053e-08
-1.28082e-07
6.29189e-08
-1.40856e-07
6.47254e-08
-1.53898e-07
6.62325e-08
-1.67158e-07
6.74485e-08
-1.80581e-07
6.83822e-08
-1.94119e-07
6.90426e-08
-2.0772e-07
6.94385e-08
-2.21338e-07
6.95781e-08
-2.34924e-07
6.94688e-08
-2.48432e-07
6.91177e-08
-2.61816e-07
6.8531e-08
-2.75034e-07
6.77141e-08
-2.88039e-07
6.66716e-08
-3.00791e-07
6.54075e-08
-3.13245e-07
6.39254e-08
-3.25361e-07
6.22283e-08
-3.37096e-07
6.03186e-08
-3.48411e-07
5.81989e-08
-3.59266e-07
5.58714e-08
-3.6962e-07
5.33385e-08
-3.79434e-07
5.06029e-08
-3.88671e-07
4.76676e-08
-3.97293e-07
4.45359e-08
-4.05264e-07
4.12123e-08
-4.12548e-07
3.77018e-08
-4.19112e-07
3.40104e-08
-4.24923e-07
3.01452e-08
-4.2995e-07
2.61144e-08
-4.34164e-07
2.19277e-08
-4.37539e-07
1.75962e-08
-4.40052e-07
1.31325e-08
-4.41679e-07
8.55041e-09
-4.42404e-07
3.86557e-09
-4.42211e-07
-9.04922e-10
-4.41088e-07
-5.7423e-09
-4.39028e-07
-1.06263e-08
-4.36027e-07
-1.55354e-08
-4.32086e-07
-2.04466e-08
-4.27209e-07
-2.53357e-08
-4.21406e-07
-3.01772e-08
-4.14692e-07
-3.49448e-08
-4.07087e-07
-3.96115e-08
-3.98614e-07
-4.41493e-08
-3.89303e-07
-4.85303e-08
-3.7919e-07
-5.27263e-08
-3.68313e-07
-5.67092e-08
-3.56719e-07
-6.04511e-08
-3.44457e-07
-6.39249e-08
-3.31581e-07
-6.71045e-08
-3.18151e-07
-6.99651e-08
-3.0423e-07
-7.24832e-08
-2.89885e-07
-7.46373e-08
-2.75187e-07
-7.64079e-08
-2.60209e-07
-7.77778e-08
-2.45029e-07
-7.87326e-08
-2.29725e-07
-7.92605e-08
-2.14378e-07
-7.93531e-08
-1.99067e-07
-7.90052e-08
-1.83875e-07
-7.8215e-08
-1.68883e-07
-7.69843e-08
-1.54171e-07
-7.53188e-08
-1.39817e-07
-7.3228e-08
-1.25897e-07
-7.07257e-08
-1.12483e-07
-6.78295e-08
-9.96437e-08
-6.45613e-08
-8.7443e-08
-6.09475e-08
-7.59388e-08
-5.70186e-08
-6.51826e-08
-5.28097e-08
-5.52188e-08
-4.83611e-08
-4.60838e-08
-4.37175e-08
-3.78049e-08
-3.89293e-08
-3.04002e-08
-3.40526e-08
-2.3877e-08
-2.91499e-08
-1.82317e-08
-2.42904e-08
-1.34488e-08
-1.95516e-08
-9.50018e-09
-1.50199e-08
-6.34481e-09
-1.07921e-08
-3.92791e-09
-6.97681e-09
-2.18066e-09
-3.69666e-09
-1.01986e-09
-1.09044e-09
-3.47484e-10
6.84829e-10
-5.06767e-11
1.44989e-09
9.83882e-10
-4.88759e-10
1.28132e-09
-1.97253e-09
4.63339e-09
-4.4517e-09
8.69974e-09
-7.91441e-09
1.34694e-08
-1.23463e-08
1.87231e-08
-1.77304e-08
2.42507e-08
-2.40441e-08
2.98839e-08
-3.12596e-08
3.54917e-08
-3.93425e-08
4.09714e-08
-4.82533e-08
4.62445e-08
-5.79471e-08
5.12519e-08
-6.83754e-08
5.59506e-08
-7.94853e-08
6.03102e-08
-9.12223e-08
6.43115e-08
-1.0353e-07
6.79428e-08
-1.1635e-07
7.11991e-08
-1.29626e-07
7.40805e-08
-1.43297e-07
7.65907e-08
-1.57308e-07
7.87361e-08
-1.716e-07
8.05248e-08
-1.86118e-07
8.19662e-08
-2.00806e-07
8.30702e-08
-2.1561e-07
8.38469e-08
-2.30478e-07
8.43058e-08
-2.45356e-07
8.44564e-08
-2.60195e-07
8.43076e-08
-2.74944e-07
8.38672e-08
-2.89555e-07
8.31421e-08
-3.0398e-07
8.21387e-08
-3.18171e-07
8.08626e-08
-3.32082e-07
7.93185e-08
-3.45667e-07
7.75105e-08
-3.58881e-07
7.54421e-08
-3.71679e-07
7.31166e-08
-3.84017e-07
7.05369e-08
-3.95851e-07
6.7706e-08
-4.0714e-07
6.46269e-08
-4.1784e-07
6.13029e-08
-4.2791e-07
5.77379e-08
-4.3731e-07
5.39362e-08
-4.46001e-07
4.99033e-08
-4.53945e-07
4.56455e-08
-4.61105e-07
4.117e-08
-4.67445e-07
3.64858e-08
-4.72934e-07
3.16029e-08
-4.77539e-07
2.65332e-08
-4.81233e-07
2.12902e-08
-4.8399e-07
1.58889e-08
-4.85785e-07
1.03463e-08
-4.86601e-07
4.68122e-09
-4.8642e-07
-1.08572e-09
-4.85231e-07
-6.93196e-09
-4.83024e-07
-1.28332e-08
-4.79796e-07
-1.87636e-08
-4.75547e-07
-2.46956e-08
-4.70282e-07
-3.06002e-08
-4.64012e-07
-3.64469e-08
-4.56753e-07
-4.22042e-08
-4.48525e-07
-4.78397e-08
-4.39354e-07
-5.33203e-08
-4.29272e-07
-5.86123e-08
-4.18316e-07
-6.36822e-08
-4.06529e-07
-6.84963e-08
-3.93958e-07
-7.30214e-08
-3.80658e-07
-7.72251e-08
-3.66686e-07
-8.10763e-08
-3.52106e-07
-8.45452e-08
-3.36986e-07
-8.7604e-08
-3.21396e-07
-9.02267e-08
-3.05414e-07
-9.23901e-08
-2.89118e-07
-9.40737e-08
-2.72591e-07
-9.526e-08
-2.55916e-07
-9.59352e-08
-2.3918e-07
-9.60891e-08
-2.2247e-07
-9.57154e-08
-2.05873e-07
-9.48118e-08
-1.89477e-07
-9.33806e-08
-1.73367e-07
-9.14284e-08
-1.57628e-07
-8.89668e-08
-1.42342e-07
-8.60119e-08
-1.27586e-07
-8.2585e-08
-1.13436e-07
-7.87122e-08
-9.99583e-08
-7.44248e-08
-8.72175e-08
-6.97593e-08
-7.52694e-08
-6.47578e-08
-6.41627e-08
-5.94678e-08
-5.39375e-08
-5.39427e-08
-4.46248e-08
-4.82419e-08
-3.62459e-08
-4.24316e-08
-2.8811e-08
-3.65847e-08
-2.23195e-08
-3.0782e-08
-1.67583e-08
-2.51128e-08
-1.21023e-08
-1.96759e-08
-8.31331e-09
-1.45811e-08
-5.34008e-09
-9.95004e-09
-3.11813e-09
-5.91862e-09
-1.56979e-09
-2.63878e-09
-6.04581e-10
-2.80387e-10
-1.19814e-10
9.65117e-10
8.64064e-10
-5.83246e-10
1.86459e-09
-2.32495e-09
6.37509e-09
-5.20428e-09
1.1579e-08
-9.1895e-09
1.74546e-08
-1.42491e-08
2.37827e-08
-2.03504e-08
3.0352e-08
-2.74585e-08
3.6992e-08
-3.55343e-08
4.35675e-08
-4.45347e-08
4.99718e-08
-5.44126e-08
5.61225e-08
-6.51169e-08
6.19562e-08
-7.65934e-08
6.7427e-08
-8.87855e-08
7.25023e-08
-1.01634e-07
7.71599e-08
-1.15079e-07
8.13874e-08
-1.29059e-07
8.5179e-08
-1.43512e-07
8.85344e-08
-1.58379e-07
9.14572e-08
-1.73597e-07
9.39542e-08
-1.89107e-07
9.60345e-08
-2.04849e-07
9.77083e-08
-2.20765e-07
9.89862e-08
-2.36797e-07
9.98795e-08
-2.52891e-07
1.00399e-07
-2.6899e-07
1.00555e-07
-2.8504e-07
1.00358e-07
-3.0099e-07
9.98163e-08
-3.16785e-07
9.89378e-08
-3.32376e-07
9.77298e-08
-3.47712e-07
9.61986e-08
-3.62743e-07
9.43497e-08
-3.77421e-07
9.21878e-08
-3.91696e-07
8.97172e-08
-4.05521e-07
8.69416e-08
-4.18849e-07
8.38647e-08
-4.31633e-07
8.04901e-08
-4.43827e-07
7.68215e-08
-4.55387e-07
7.28628e-08
-4.66268e-07
6.8619e-08
-4.76428e-07
6.40953e-08
-4.85823e-07
5.92983e-08
-4.94413e-07
5.42357e-08
-5.02159e-07
4.89164e-08
-5.09024e-07
4.33508e-08
-5.14972e-07
3.75512e-08
-5.19971e-07
3.15318e-08
-5.23989e-07
2.53084e-08
-5.27e-07
1.88991e-08
-5.28977e-07
1.23239e-08
-5.29901e-07
5.60499e-09
-5.29753e-07
-1.23314e-09
-5.28521e-07
-8.16397e-09
-5.26196e-07
-1.51589e-08
-5.22772e-07
-2.21876e-08
-5.1825e-07
-2.92176e-08
-5.12635e-07
-3.62146e-08
-5.05939e-07
-4.31432e-08
-4.98177e-07
-4.99661e-08
-4.89371e-07
-5.66455e-08
-4.79549e-07
-6.31424e-08
-4.68744e-07
-6.94175e-08
-4.56995e-07
-7.54312e-08
-4.44347e-07
-8.11441e-08
-4.30851e-07
-8.65172e-08
-4.16564e-07
-9.15126e-08
-4.01546e-07
-9.60938e-08
-3.85866e-07
-1.00226e-07
-3.69594e-07
-1.03876e-07
-3.52807e-07
-1.07013e-07
-3.35586e-07
-1.09611e-07
-3.18015e-07
-1.11645e-07
-3.0018e-07
-1.13095e-07
-2.82172e-07
-1.13943e-07
-2.64082e-07
-1.14179e-07
-2.46004e-07
-1.13794e-07
-2.28029e-07
-1.12786e-07
-2.10252e-07
-1.11158e-07
-1.92765e-07
-1.08916e-07
-1.75657e-07
-1.06075e-07
-1.59016e-07
-1.02653e-07
-1.42926e-07
-9.8675e-08
-1.27466e-07
-9.41718e-08
-1.12711e-07
-8.91797e-08
-9.87291e-08
-8.37416e-08
-8.55805e-08
-7.79064e-08
-7.33187e-08
-7.17296e-08
-6.19883e-08
-6.52731e-08
-5.16242e-08
-5.8606e-08
-4.22514e-08
-5.18044e-08
-3.38838e-08
-4.49523e-08
-2.6524e-08
-3.81418e-08
-2.01625e-08
-3.14742e-08
-1.47776e-08
-2.50608e-08
-1.03351e-08
-1.90236e-08
-6.78782e-09
-1.34973e-08
-4.07649e-09
-8.62996e-09
-2.12964e-09
-4.58564e-09
-8.64679e-10
-1.54535e-09
-1.88999e-10
2.89431e-10
6.7506e-10
-6.76059e-10
2.54065e-09
-2.67248e-09
8.3715e-09
-5.94728e-09
1.48539e-08
-1.04501e-08
2.19574e-08
-1.61324e-08
2.9465e-08
-2.29468e-08
3.71663e-08
-3.08453e-08
4.48905e-08
-3.97777e-08
5.24999e-08
-4.96913e-08
5.98855e-08
-6.0531e-08
6.69622e-08
-7.22393e-08
7.36645e-08
-8.47561e-08
7.99438e-08
-9.80194e-08
8.57656e-08
-1.11966e-07
9.11068e-08
-1.26533e-07
9.5954e-08
-1.41654e-07
1.00301e-07
-1.57266e-07
1.04146e-07
-1.73304e-07
1.07495e-07
-1.89704e-07
1.10355e-07
-2.06404e-07
1.12734e-07
-2.2334e-07
1.14645e-07
-2.40453e-07
1.16099e-07
-2.57682e-07
1.17108e-07
-2.74968e-07
1.17685e-07
-2.92253e-07
1.1784e-07
-3.0948e-07
1.17586e-07
-3.26594e-07
1.1693e-07
-3.43539e-07
1.15883e-07
-3.60262e-07
1.14453e-07
-3.7671e-07
1.12646e-07
-3.92828e-07
1.10468e-07
-4.08567e-07
1.07926e-07
-4.23873e-07
1.05024e-07
-4.38697e-07
1.01766e-07
-4.52989e-07
9.81566e-08
-4.66699e-07
9.42003e-08
-4.79779e-07
8.99012e-08
-4.92181e-07
8.52643e-08
-5.03857e-07
8.02952e-08
-5.14762e-07
7.50006e-08
-5.24852e-07
6.9388e-08
-5.34083e-07
6.34665e-08
-5.42413e-07
5.72466e-08
-5.49803e-07
5.07408e-08
-5.56215e-07
4.39635e-08
-5.61614e-07
3.69311e-08
-5.65968e-07
2.96622e-08
-5.69247e-07
2.21778e-08
-5.71424e-07
1.45012e-08
-5.72478e-07
6.65833e-09
-5.72388e-07
-1.32251e-09
-5.71142e-07
-9.41058e-09
-5.68728e-07
-1.75728e-08
-5.65141e-07
-2.5774e-08
-5.60382e-07
-3.39765e-08
-5.54456e-07
-4.21409e-08
-5.47373e-07
-5.02259e-08
-5.39151e-07
-5.81888e-08
-5.29811e-07
-6.59856e-08
-5.19382e-07
-7.35714e-08