/*--------------------------------*- C++ -*----------------------------------*\
| =========                 |                                                 |
| \\      /  F ield         | OpenFOAM: The Open Source CFD Toolbox           |
|  \\    /   O peration     | Version:  2512                                  |
|   \\  /    A nd           | Website:  www.openfoam.com                      |
|    \\/     M anipulation  |                                                 |
\*---------------------------------------------------------------------------*/
FoamFile
{
    version     2.0;
    format      ascii;
    arch        "LSB;label=32;scalar=64";
    class       volVectorField;
    location    "0.4";
    object      U;
}
// * * * * * * * * * * * * * * * * * * * * * * * * * * * * * * * * * * * * * //

dimensions      [0 1 -1 0 0 0 0];

internalField   nonuniform List<vector> 
10000
(
(3.20932e-06 -3.46247e-06 0)
(1.44941e-05 -7.25237e-06 0)
(2.99327e-05 -7.34272e-06 0)
(4.22156e-05 -5.44108e-06 0)
(4.70169e-05 -2.5826e-06 0)
(4.27328e-05 6.37988e-07 0)
(2.87057e-05 3.9121e-06 0)
(4.86258e-06 7.07653e-06 0)
(-2.85083e-05 1.0054e-05 0)
(-7.09129e-05 1.2807e-05 0)
(-0.000121741 1.53216e-05 0)
(-0.000180322 1.75944e-05 0)
(-0.000245962 1.96286e-05 0)
(-0.000317968 2.14343e-05 0)
(-0.000395658 2.30236e-05 0)
(-0.000478374 2.44096e-05 0)
(-0.000565487 2.56065e-05 0)
(-0.000656399 2.6626e-05 0)
(-0.000750544 2.74788e-05 0)
(-0.000847393 2.81782e-05 0)
(-0.000946443 2.87353e-05 0)
(-0.00104722 2.91602e-05 0)
(-0.0011493 2.9463e-05 0)
(-0.00125224 2.96509e-05 0)
(-0.00135566 2.97294e-05 0)
(-0.00145918 2.97044e-05 0)
(-0.00156245 2.95809e-05 0)
(-0.00166511 2.93627e-05 0)
(-0.00176684 2.90536e-05 0)
(-0.0018673 2.86564e-05 0)
(-0.00196619 2.81717e-05 0)
(-0.00206319 2.75994e-05 0)
(-0.00215798 2.69402e-05 0)
(-0.00225026 2.61949e-05 0)
(-0.00233973 2.53631e-05 0)
(-0.00242607 2.44437e-05 0)
(-0.00250897 2.34359e-05 0)
(-0.00258813 2.23393e-05 0)
(-0.00266323 2.11534e-05 0)
(-0.00273398 1.98773e-05 0)
(-0.00280004 1.85106e-05 0)
(-0.00286114 1.70541e-05 0)
(-0.00291695 1.5509e-05 0)
(-0.00296718 1.38767e-05 0)
(-0.00301155 1.2159e-05 0)
(-0.00304977 1.03586e-05 0)
(-0.00308158 8.47932e-06 0)
(-0.00310673 6.52579e-06 0)
(-0.00312498 4.50377e-06 0)
(-0.00313613 2.41942e-06 0)
(-0.00314 2.79985e-07 0)
(-0.00313641 -1.90596e-06 0)
(-0.00312524 -4.12905e-06 0)
(-0.0031064 -6.37879e-06 0)
(-0.00307983 -8.64371e-06 0)
(-0.00304551 -1.0912e-05 0)
(-0.00300347 -1.3171e-05 0)
(-0.00295378 -1.54067e-05 0)
(-0.00289654 -1.7605e-05 0)
(-0.00283193 -1.9751e-05 0)
(-0.00276015 -2.18293e-05 0)
(-0.00268147 -2.38243e-05 0)
(-0.0025962 -2.57207e-05 0)
(-0.00250472 -2.75032e-05 0)
(-0.00240743 -2.91562e-05 0)
(-0.0023048 -3.06653e-05 0)
(-0.00219734 -3.20162e-05 0)
(-0.00208561 -3.31953e-05 0)
(-0.0019702 -3.41902e-05 0)
(-0.00185175 -3.49895e-05 0)
(-0.00173094 -3.55831e-05 0)
(-0.00160846 -3.59624e-05 0)
(-0.00148504 -3.61204e-05 0)
(-0.00136143 -3.6052e-05 0)
(-0.00123838 -3.57531e-05 0)
(-0.00111667 -3.52219e-05 0)
(-0.000997056 -3.44587e-05 0)
(-0.000880314 -3.34658e-05 0)
(-0.000767195 -3.22471e-05 0)
(-0.000658434 -3.08083e-05 0)
(-0.000554742 -2.91572e-05 0)
(-0.000456802 -2.73036e-05 0)
(-0.000365256 -2.52588e-05 0)
(-0.000280703 -2.30366e-05 0)
(-0.00020369 -2.06523e-05 0)
(-0.000134707 -1.81232e-05 0)
(-7.41753e-05 -1.54686e-05 0)
(-2.24406e-05 -1.27105e-05 0)
(2.02347e-05 -9.87528e-06 0)
(5.369e-05 -6.99097e-06 0)
(7.78847e-05 -4.09464e-06 0)
(9.29192e-05 -1.2325e-06 0)
(9.90741e-05 1.53326e-06 0)
(9.68639e-05 4.11407e-06 0)
(8.71228e-05 6.3771e-06 0)
(7.11349e-05 8.11544e-06 0)
(5.08018e-05 9.00463e-06 0)
(2.89516e-05 8.52372e-06 0)
(1.02369e-05 5.92827e-06 0)
(1.20069e-06 1.20563e-06 0)
(6.95086e-06 -1.4434e-05 0)
(2.62357e-05 -2.65506e-05 0)
(4.81543e-05 -2.43313e-05 0)
(5.96729e-05 -1.34602e-05 0)
(5.2925e-05 2.22518e-06 0)
(2.38942e-05 2.02549e-05 0)
(-2.94502e-05 3.91028e-05 0)
(-0.000107774 5.78363e-05 0)
(-0.000210794 7.5891e-05 0)
(-0.000337605 9.29348e-05 0)
(-0.000486906 0.000108779 0)
(-0.000657154 0.000123327 0)
(-0.000846674 0.000136541 0)
(-0.00105373 0.000148422 0)
(-0.00127656 0.000159001 0)
(-0.00151346 0.000168323 0)
(-0.00176274 0.000176443 0)
(-0.00202278 0.00018342 0)
(-0.00229204 0.000189318 0)
(-0.00256903 0.000194195 0)
(-0.00285237 0.000198112 0)
(-0.00314071 0.000201124 0)
(-0.00343281 0.000203283 0)
(-0.00372745 0.000204634 0)
(-0.00402349 0.000205218 0)
(-0.00431986 0.000205071 0)
(-0.00461549 0.000204222 0)
(-0.00490937 0.000202695 0)
(-0.00520054 0.000200512 0)
(-0.00548804 0.000197689 0)
(-0.00577093 0.000194236 0)
(-0.0060483 0.000190161 0)
(-0.00631924 0.00018547 0)
(-0.00658285 0.000180166 0)
(-0.00683823 0.000174248 0)
(-0.0070845 0.000167718 0)
(-0.00732076 0.000160574 0)
(-0.00754614 0.000152816 0)
(-0.00775973 0.000144445 0)
(-0.00796067 0.000135462 0)
(-0.00814809 0.00012587 0)
(-0.00832111 0.000115677 0)
(-0.00847891 0.000104893 0)
(-0.00862064 9.35331e-05 0)
(-0.00874551 8.16136e-05 0)
(-0.00885275 6.9158e-05 0)
(-0.00894164 5.6195e-05 0)
(-0.00901149 4.27582e-05 0)
(-0.00906167 2.88879e-05 0)
(-0.00909163 1.46294e-05 0)
(-0.00910085 3.35616e-08 0)
(-0.00908894 -1.48418e-05 0)
(-0.00905556 -2.99325e-05 0)
(-0.00900048 -4.51686e-05 0)
(-0.00892356 -6.04745e-05 0)
(-0.0088248 -7.57697e-05 0)
(-0.00870428 -9.09695e-05 0)
(-0.00856223 -0.000105984 0)
(-0.008399 -0.00012072 0)
(-0.00821507 -0.00013508 0)
(-0.00801106 -0.000148967 0)
(-0.00778773 -0.00016228 0)
(-0.00754597 -0.00017492 0)
(-0.00728682 -0.000186787 0)
(-0.00701145 -0.000197785 0)
(-0.00672116 -0.000207818 0)
(-0.00641738 -0.000216798 0)
(-0.00610167 -0.000224639 0)
(-0.00577568 -0.000231262 0)
(-0.0054412 -0.000236596 0)
(-0.00510007 -0.000240577 0)
(-0.00475424 -0.000243152 0)
(-0.00440572 -0.000244278 0)
(-0.00405655 -0.000243921 0)
(-0.00370885 -0.00024206 0)
(-0.00336473 -0.000238686 0)
(-0.0030263 -0.000233802 0)
(-0.00269566 -0.000227423 0)
(-0.00237489 -0.00021958 0)
(-0.002066 -0.000210313 0)
(-0.00177094 -0.000199677 0)
(-0.00149157 -0.000187741 0)
(-0.00122964 -0.000174587 0)
(-0.000986759 -0.000160309 0)
(-0.000764407 -0.000145019 0)
(-0.00056388 -0.00012884 0)
(-0.00038628 -0.000111915 0)
(-0.000232486 -9.4407e-05 0)
(-0.00010312 -7.65045e-05 0)
(1.48935e-06 -5.84246e-05 0)
(8.13658e-05 -4.04309e-05 0)
(0.000136944 -2.28464e-05 0)
(0.000169165 -6.08157e-06 0)
(0.000179593 9.3258e-06 0)
(0.000170591 2.26481e-05 0)
(0.000145537 3.28825e-05 0)
(0.000109024 3.86468e-05 0)
(6.71337e-05 3.80539e-05 0)
(2.87438e-05 2.87991e-05 0)
(5.88913e-06 1.0213e-05 0)
(7.33181e-06 -2.99364e-05 0)
(2.44358e-05 -4.83456e-05 0)
(3.76179e-05 -3.74743e-05 0)
(3.22556e-05 -7.79706e-06 0)
(-9.53548e-07 3.32479e-05 0)
(-6.72545e-05 8.04555e-05 0)
(-0.000169548 0.000130278 0)
(-0.000308987 0.000180358 0)
(-0.000485418 0.000229145 0)
(-0.000697765 0.000275647 0)
(-0.000944329 0.000319246 0)
(-0.00122299 0.000359579 0)
(-0.00153138 0.000396462 0)
(-0.00186697 0.00042983 0)
(-0.00222718 0.000459702 0)
(-0.00260944 0.000486155 0)
(-0.00301119 0.0005093 0)
(-0.00342997 0.00052927 0)
(-0.00386336 0.000546213 0)
(-0.00430909 0.000560276 0)
(-0.00476493 0.000571607 0)
(-0.00522878 0.000580347 0)
(-0.00569864 0.000586628 0)
(-0.00617259 0.000590571 0)
(-0.00664878 0.000592284 0)
(-0.00712545 0.000591863 0)
(-0.00760091 0.000589389 0)
(-0.00807352 0.000584932 0)
(-0.00854167 0.000578547 0)
(-0.00900383 0.000570281 0)
(-0.00945846 0.000560169 0)
(-0.00990407 0.000548235 0)
(-0.0103392 0.000534498 0)
(-0.0107624 0.00051897 0)
(-0.0111721 0.000501657 0)
(-0.011567 0.000482565 0)
(-0.0119457 0.000461698 0)
(-0.0123066 0.000439061 0)
(-0.0126484 0.00041466 0)
(-0.0129697 0.000388507 0)
(-0.013269 0.000360619 0)
(-0.0135451 0.000331023 0)
(-0.0137965 0.000299752 0)
(-0.0140221 0.000266853 0)
(-0.0142204 0.000232383 0)
(-0.0143904 0.000196412 0)
(-0.0145309 0.000159027 0)
(-0.0146409 0.000120328 0)
(-0.0147193 8.04307e-05 0)
(-0.0147653 3.94694e-05 0)
(-0.0147782 -2.40712e-06 0)
(-0.0147573 -4.50334e-05 0)
(-0.0147021 -8.82262e-05 0)
(-0.0146124 -0.000131787 0)
(-0.014488 -0.000175501 0)
(-0.0143287 -0.00021914 0)
(-0.014135 -0.000262464 0)
(-0.013907 -0.000305221 0)
(-0.0136455 -0.000347148 0)
(-0.0133511 -0.000387975 0)
(-0.013025 -0.000427428 0)
(-0.0126682 -0.000465228 0)
(-0.0122824 -0.000501097 0)
(-0.011869 -0.000534759 0)
(-0.01143 -0.000565946 0)
(-0.0109673 -0.000594396 0)
(-0.0104834 -0.000619859 0)
(-0.00998056 -0.000642101 0)
(-0.00946146 -0.000660905 0)
(-0.00892886 -0.000676073 0)
(-0.0083857 -0.000687432 0)
(-0.00783499 -0.000694835 0)
(-0.00727989 -0.000698163 0)
(-0.00672362 -0.000697328 0)
(-0.00616944 -0.000692272 0)
(-0.00562066 -0.000682973 0)
(-0.00508058 -0.000669443 0)
(-0.00455248 -0.00065173 0)
(-0.00403958 -0.000629919 0)
(-0.00354502 -0.000604132 0)
(-0.00307182 -0.000574529 0)
(-0.00262286 -0.000541308 0)
(-0.00220085 -0.000504707 0)
(-0.00180827 -0.000465005 0)
(-0.0014474 -0.000422521 0)
(-0.00112019 -0.000377622 0)
(-0.000828313 -0.000330727 0)
(-0.000573065 -0.000282314 0)
(-0.000355333 -0.000232934 0)
(-0.000175527 -0.000183225 0)
(-3.35145e-05 -0.000133946 0)
(7.1481e-05 -8.6011e-05 0)
(0.000140992 -4.05459e-05 0)
(0.000177455 1.03435e-06 0)
(0.000184401 3.69193e-05 0)
(0.00016667 6.47771e-05 0)
(0.00013055 8.16327e-05 0)
(8.39374e-05 8.38049e-05 0)
(3.80067e-05 6.71622e-05 0)
(8.45458e-06 2.88381e-05 0)
(5.54791e-06 -4.22487e-05 0)
(1.38137e-05 -5.99617e-05 0)
(8.21503e-06 -3.21424e-05 0)
(-2.51456e-05 2.54801e-05 0)
(-9.55731e-05 0.000101865 0)
(-0.000208722 0.000188944 0)
(-0.000367836 0.000280932 0)
(-0.000574272 0.000373786 0)
(-0.000827921 0.000464727 0)
(-0.00112759 0.000551875 0)
(-0.00147129 0.000634002 0)
(-0.00185651 0.000710342 0)
(-0.00228035 0.000780458 0)
(-0.00273971 0.000844147 0)
(-0.00323134 0.000901375 0)
(-0.00375197 0.000952219 0)
(-0.00429836 0.000996841 0)
(-0.00486729 0.00103545 0)
(-0.00545564 0.00106828 0)
(-0.0060604 0.00109559 0)
(-0.00667866 0.00111764 0)
(-0.00730762 0.00113467 0)
(-0.00794459 0.00114691 0)
(-0.00858699 0.00115459 0)
(-0.00923234 0.0011579 0)
(-0.00987826 0.00115702 0)
(-0.0105224 0.0011521 0)
(-0.0111627 0.00114327 0)
(-0.0117967 0.00113064 0)
(-0.0124225 0.0011143 0)
(-0.0130379 0.0010943 0)
(-0.013641 0.00107072 0)
(-0.0142297 0.00104359 0)
(-0.0148019 0.00101293 0)
(-0.0153558 0.000978761 0)
(-0.0158894 0.000941108 0)
(-0.0164006 0.000899983 0)
(-0.0168877 0.000855401 0)
(-0.0173487 0.000807385 0)
(-0.0177817 0.000755966 0)
(-0.0181848 0.000701188 0)
(-0.0185562 0.000643106 0)
(-0.0188942 0.000581798 0)
(-0.019197 0.00051736 0)
(-0.0194629 0.000449909 0)
(-0.0196904 0.000379592 0)
(-0.0198779 0.000306579 0)
(-0.0200242 0.000231072 0)
(-0.0201279 0.000153299 0)
(-0.0201879 7.35234e-05 0)
(-0.0202033 -7.96299e-06 0)
(-0.0201732 -9.08365e-05 0)
(-0.020097 -0.000174743 0)
(-0.0199745 -0.000259296 0)
(-0.0198052 -0.000344085 0)
(-0.0195894 -0.000428671 0)
(-0.0193273 -0.000512589 0)
(-0.0190194 -0.000595357 0)
(-0.0186665 -0.000676472 0)
(-0.0182698 -0.000755419 0)
(-0.0178306 -0.000831674 0)
(-0.0173505 -0.000904707 0)
(-0.0168315 -0.000973989 0)
(-0.0162757 -0.001039 0)
(-0.0156857 -0.00109922 0)
(-0.0150642 -0.00115416 0)
(-0.0144141 -0.00120335 0)
(-0.0137388 -0.00124633 0)
(-0.0130417 -0.00128271 0)
(-0.0123265 -0.00131211 0)
(-0.011597 -0.0013342 0)
(-0.0108572 -0.0013487 0)
(-0.0101114 -0.0013554 0)
(-0.00936368 -0.00135413 0)
(-0.00861844 -0.00134478 0)
(-0.00788002 -0.00132731 0)
(-0.00715276 -0.00130176 0)
(-0.00644098 -0.00126821 0)
(-0.00574891 -0.00122684 0)
(-0.00508068 -0.00117788 0)
(-0.00444025 -0.00112166 0)
(-0.0038314 -0.00105856 0)
(-0.00325765 -0.000989034 0)
(-0.00272228 -0.000913642 0)
(-0.0022282 -0.000833007 0)
(-0.00177797 -0.00074785 0)
(-0.00137372 -0.00065899 0)
(-0.00101709 -0.000567364 0)
(-0.00070919 -0.000474042 0)
(-0.000450483 -0.000380265 0)
(-0.000240736 -0.000287482 0)
(-7.88987e-05 -0.000197412 0)
(3.70183e-05 -0.000112125 0)
(0.000110087 -3.41467e-05 0)
(0.000144639 3.34072e-05 0)
(0.000146456 8.6684e-05 0)
(0.000122859 0.000120962 0)
(8.28413e-05 0.000130611 0)
(3.89431e-05 0.000109298 0)
(8.96153e-06 5.06441e-05 0)
(2.76943e-06 -4.73823e-05 0)
(-1.7861e-06 -5.34013e-05 0)
(-3.30167e-05 1.1489e-06 0)
(-0.000102249 9.60158e-05 0)
(-0.000217777 0.000216866 0)
(-0.00038507 0.000352937 0)
(-0.000607263 0.000496264 0)
(-0.000885622 0.000641086 0)
(-0.00121993 0.000783302 0)
(-0.00160882 0.000920044 0)
(-0.00205006 0.00104936 0)
(-0.00254081 0.00116998 0)
(-0.00307774 0.00128113 0)
(-0.0036573 0.00138241 0)
(-0.0042757 0.00147367 0)
(-0.00492913 0.00155497 0)
(-0.00561374 0.00162649 0)
(-0.00632569 0.0016885 0)
(-0.00706128 0.00174134 0)
(-0.00781684 0.00178535 0)
(-0.00858885 0.00182091 0)
(-0.0093739 0.00184839 0)
(-0.0101687 0.00186814 0)
(-0.0109701 0.00188049 0)
(-0.0117749 0.00188572 0)
(-0.0125803 0.00188413 0)
(-0.0133834 0.00187593 0)
(-0.0141813 0.00186133 0)
(-0.0149715 0.00184051 0)
(-0.0157511 0.0018136 0)
(-0.0165176 0.00178072 0)
(-0.0172685 0.00174195 0)
(-0.0180013 0.00169736 0)
(-0.0187133 0.00164701 0)
(-0.0194023 0.00159094 0)
(-0.0200656 0.00152918 0)
(-0.020701 0.00146177 0)
(-0.021306 0.00138874 0)
(-0.0218783 0.00131014 0)
(-0.0224155 0.00122604 0)
(-0.0229153 0.00113651 0)
(-0.0233754 0.00104165 0)
(-0.0237938 0.000941614 0)
(-0.0241683 0.000836552 0)
(-0.0244967 0.000726671 0)
(-0.0247774 0.000612213 0)
(-0.0250083 0.000493463 0)
(-0.0251879 0.000370754 0)
(-0.0253146 0.000244464 0)
(-0.0253872 0.000115019 0)
(-0.0254044 -1.71051e-05 0)
(-0.0253653 -0.000151382 0)
(-0.0252692 -0.000287238 0)
(-0.0251156 -0.000424055 0)
(-0.0249045 -0.000561168 0)
(-0.0246358 -0.000697873 0)
(-0.0243099 -0.000833428 0)
(-0.0239276 -0.000967058 0)
(-0.0234899 -0.00109796 0)
(-0.0229982 -0.00122532 0)
(-0.0224541 -0.00134829 0)
(-0.0218596 -0.00146604 0)
(-0.0212172 -0.00157772 0)
(-0.0205295 -0.00168251 0)
(-0.0197997 -0.00177958 0)
(-0.019031 -0.00186816 0)
(-0.0182271 -0.0019475 0)
(-0.0173921 -0.00201689 0)
(-0.01653 -0.00207568 0)
(-0.0156455 -0.0021233 0)
(-0.0147432 -0.00215921 0)
(-0.013828 -0.00218299 0)
(-0.0129049 -0.00219428 0)
(-0.0119791 -0.00219284 0)
(-0.0110559 -0.00217849 0)
(-0.0101405 -0.00215118 0)
(-0.00923817 -0.00211096 0)
(-0.00835422 -0.00205799 0)
(-0.00749375 -0.00199255 0)
(-0.00666176 -0.00191502 0)
(-0.00586304 -0.00182593 0)
(-0.00510217 -0.00172589 0)
(-0.0043834 -0.00161567 0)
(-0.00371067 -0.00149616 0)
(-0.00308749 -0.00136836 0)
(-0.00251694 -0.00123346 0)
(-0.00200153 -0.00109278 0)
(-0.00154324 -0.000947836 0)
(-0.00114336 -0.000800344 0)
(-0.000802411 -0.000652282 0)
(-0.000520121 -0.000505935 0)
(-0.000295251 -0.000363975 0)
(-0.000125506 -0.000229554 0)
(-7.39915e-06 -0.000106432 0)
(6.39024e-05 8.79005e-07 0)
(9.47401e-05 8.69458e-05 0)
(9.30335e-05 0.000145263 0)
(6.84192e-05 0.000168176 0)
(3.40473e-05 0.000146906 0)
(8.19487e-06 7.12081e-05 0)
(-4.24571e-07 -4.34209e-05 0)
(-2.00364e-05 -2.4269e-05 0)
(-8.12639e-05 6.81982e-05 0)
(-0.000191704 0.000210233 0)
(-0.000357923 0.000384701 0)
(-0.000584735 0.000578453 0)
(-0.000874799 0.000781519 0)
(-0.00122901 0.000986498 0)
(-0.00164687 0.00118798 0)
(-0.00212675 0.00138207 0)
(-0.00266613 0.00156605 0)
(-0.00326184 0.00173808 0)
(-0.00391022 0.00189701 0)
(-0.00460728 0.00204216 0)
(-0.00534884 0.00217326 0)
(-0.00613058 0.0022903 0)
(-0.00694815 0.00239345 0)
(-0.00779724 0.00248304 0)
(-0.00867355 0.00255947 0)
(-0.00957293 0.00262321 0)
(-0.0104913 0.00267474 0)
(-0.0114247 0.00271454 0)
(-0.0123692 0.0027431 0)
(-0.0133213 0.00276084 0)
(-0.0142772 0.0027682 0)
(-0.0152335 0.00276552 0)
(-0.0161868 0.00275315 0)
(-0.0171338 0.00273137 0)
(-0.0180713 0.00270042 0)
(-0.0189961 0.0026605 0)
(-0.0199052 0.00261178 0)
(-0.0207954 0.00255438 0)
(-0.0216639 0.00248842 0)
(-0.0225076 0.00241397 0)
(-0.0233237 0.00233111 0)
(-0.0241092 0.00223991 0)
(-0.0248612 0.00214041 0)
(-0.025577 0.0020327 0)
(-0.0262537 0.00191685 0)
(-0.0268887 0.00179297 0)
(-0.0274791 0.00166119 0)
(-0.0280224 0.00152167 0)
(-0.028516 0.00137463 0)
(-0.0289575 0.00122032 0)
(-0.0293445 0.00105905 0)
(-0.0296747 0.000891184 0)
(-0.0299462 0.000717147 0)
(-0.0301568 0.00053743 0)
(-0.030305 0.000352594 0)
(-0.0303892 0.000163267 0)
(-0.030408 -2.98555e-05 0)
(-0.0303604 -0.000226005 0)
(-0.0302457 -0.000424346 0)
(-0.0300633 -0.000623979 0)
(-0.0298131 -0.000823941 0)
(-0.0294952 -0.00102321 0)
(-0.02911 -0.00122072 0)
(-0.0286585 -0.00141535 0)
(-0.0281419 -0.00160594 0)
(-0.0275618 -0.00179131 0)
(-0.0269202 -0.00197026 0)
(-0.0262194 -0.00214158 0)
(-0.0254623 -0.00230407 0)
(-0.024652 -0.00245653 0)
(-0.0237922 -0.0025978 0)
(-0.0228866 -0.00272674 0)
(-0.0219396 -0.0028423 0)
(-0.0209558 -0.00294347 0)
(-0.0199401 -0.00302931 0)
(-0.0188977 -0.003099 0)
(-0.0178341 -0.00315178 0)
(-0.0167549 -0.00318706 0)
(-0.015666 -0.00320431 0)
(-0.0145733 -0.00320319 0)
(-0.013483 -0.00318346 0)
(-0.0124012 -0.00314505 0)
(-0.0113339 -0.00308804 0)
(-0.0102873 -0.00301267 0)
(-0.00926721 -0.00291935 0)
(-0.0082795 -0.00280864 0)
(-0.00732969 -0.00268129 0)
(-0.00642306 -0.00253824 0)
(-0.00556452 -0.00238057 0)
(-0.00475862 -0.00220958 0)
(-0.00400939 -0.00202677 0)
(-0.00332037 -0.00183384 0)
(-0.00269448 -0.0016327 0)
(-0.00213395 -0.00142556 0)
(-0.00164029 -0.00121489 0)
(-0.00121412 -0.0010035 0)
(-0.000855179 -0.000794637 0)
(-0.000562138 -0.000592011 0)
(-0.000332543 -0.000399952 0)
(-0.000162681 -0.00022352 0)
(-4.7456e-05 -6.86689e-05 0)
(1.97472e-05 5.75741e-05 0)
(4.71288e-05 0.000146922 0)
(4.46175e-05 0.000189692 0)
(2.53218e-05 0.000174658 0)
(6.69937e-06 8.80163e-05 0)
(-3.74489e-06 -2.9529e-05 0)
(-3.95443e-05 2.9982e-05 0)
(-0.000133334 0.000172727 0)
(-0.000288386 0.000372484 0)
(-0.000509061 0.0006099 0)
(-0.000799172 0.000869826 0)
(-0.00116061 0.00114054 0)
(-0.00159365 0.00141315 0)
(-0.00209734 0.00168102 0)
(-0.00266967 0.00193927 0)
(-0.00330776 0.00218441 0)
(-0.00400812 0.00241402 0)
(-0.00476673 0.00262652 0)
(-0.00557925 0.00282096 0)
(-0.00644107 0.00299689 0)
(-0.0073475 0.0031542 0)
(-0.00829375 0.00329305 0)
(-0.00927504 0.00341379 0)
(-0.0102866 0.00351691 0)
(-0.0113239 0.00360296 0)
(-0.0123823 0.00367252 0)
(-0.0134573 0.00372621 0)
(-0.0145447 0.00376462 0)
(-0.0156402 0.00378831 0)
(-0.0167398 0.00379781 0)
(-0.0178396 0.0037936 0)
(-0.0189355 0.0037761 0)
(-0.020024 0.00374569 0)
(-0.0211012 0.00370268 0)
(-0.0221637 0.00364735 0)
(-0.0232077 0.00357992 0)
(-0.0242299 0.00350056 0)
(-0.0252269 0.00340944 0)
(-0.0261952 0.00330667 0)
(-0.0271314 0.00319235 0)
(-0.0280323 0.0030666 0)
(-0.0288946 0.00292949 0)
(-0.029715 0.00278116 0)
(-0.0304904 0.00262171 0)
(-0.0312176 0.00245132 0)
(-0.0318936 0.00227018 0)
(-0.0325154 0.00207852 0)
(-0.0330801 0.00187667 0)
(-0.0335849 0.00166497 0)
(-0.0340271 0.00144386 0)
(-0.0344043 0.00121385 0)
(-0.034714 0.000975534 0)
(-0.0349542 0.000729596 0)
(-0.0351228 0.000476803 0)
(-0.0352183 0.000218015 0)
(-0.035239 -4.58136e-05 0)
(-0.0351839 -0.000313636 0)
(-0.0350521 -0.000584317 0)
(-0.0348431 -0.000856634 0)
(-0.0345568 -0.00112928 0)
(-0.0341932 -0.00140088 0)
(-0.033753 -0.00166998 0)
(-0.0332372 -0.00193507 0)
(-0.0326472 -0.0021946 0)
(-0.0319848 -0.00244697 0)
(-0.0312524 -0.00269058 0)
(-0.0304526 -0.00292378 0)
(-0.0295885 -0.00314496 0)
(-0.0286638 -0.00335252 0)
(-0.0276825 -0.0035449 0)
(-0.026649 -0.00372059 0)
(-0.0255682 -0.00387816 0)
(-0.0244451 -0.00401625 0)
(-0.0232854 -0.00413362 0)
(-0.0220948 -0.00422915 0)
(-0.0208796 -0.00430187 0)
(-0.0196462 -0.00435093 0)
(-0.018401 -0.00437568 0)
(-0.0171508 -0.00437563 0)
(-0.0159024 -0.00435047 0)
(-0.0146628 -0.00430013 0)
(-0.0134388 -0.00422471 0)
(-0.0122371 -0.00412454 0)
(-0.0110645 -0.00400018 0)
(-0.00992744 -0.00385241 0)
(-0.00883217 -0.00368225 0)
(-0.0077846 -0.00349094 0)
(-0.00679027 -0.00328001 0)
(-0.00585425 -0.00305119 0)
(-0.0049811 -0.00280652 0)
(-0.00417477 -0.0025483 0)
(-0.00343856 -0.00227913 0)
(-0.00277499 -0.00200197 0)
(-0.00218578 -0.00172013 0)
(-0.00167172 -0.00143735 0)
(-0.0012326 -0.00115789 0)
(-0.000867128 -0.000886584 0)
(-0.000572805 -0.000628992 0)
(-0.000345855 -0.000391505 0)
(-0.00018111 -0.000181527 0)
(-7.19053e-05 -7.65903e-06 0)
(-1.00096e-05 0.000120077 0)
(1.45041e-05 0.00019006 0)
(1.41929e-05 0.0001888 0)
(4.80905e-06 9.95246e-05 0)
(-7.04756e-06 -5.38266e-06 0)
(-5.94886e-05 0.000110704 0)
(-0.000187177 0.00031695 0)
(-0.000388816 0.000585542 0)
(-0.000666302 0.000895481 0)
(-0.0010222 0.00123003 0)
(-0.0014574 0.00157601 0)
(-0.00197138 0.00192326 0)
(-0.00256256 0.00226402 0)
(-0.00322842 0.00259252 0)
(-0.00396568 0.00290454 0)
(-0.00477044 0.00319709 0)
(-0.00563833 0.00346817 0)
(-0.00656463 0.00371654 0)
(-0.0075444 0.00394155 0)
(-0.00857254 0.004143 0)
(-0.00964389 0.00432101 0)
(-0.0107533 0.00447595 0)
(-0.0118956 0.00460836 0)
(-0.0130657 0.00471886 0)
(-0.0142587 0.00480816 0)
(-0.0154697 0.00487699 0)
(-0.0166939 0.00492604 0)
(-0.0179267 0.00495602 0)
(-0.0191637 0.00496755 0)
(-0.0204003 0.00496123 0)
(-0.0216323 0.00493758 0)
(-0.0228556 0.00489707 0)
(-0.024066 0.0048401 0)
(-0.0252594 0.00476701 0)
(-0.0264319 0.00467808 0)
(-0.0275797 0.00457356 0)
(-0.0286988 0.00445364 0)
(-0.0297855 0.00431849 0)
(-0.030836 0.00416827 0)
(-0.0318466 0.0040031 0)
(-0.0328136 0.00382314 0)
(-0.0337335 0.00362854 0)
(-0.0346027 0.0034195 0)
(-0.0354177 0.00319622 0)
(-0.0361751 0.002959 0)
(-0.0368716 0.00270816 0)
(-0.037504 0.00244411 0)
(-0.0380692 0.00216735 0)
(-0.0385642 0.00187846 0)
(-0.0389863 0.0015781 0)
(-0.0393329 0.00126707 0)
(-0.0396017 0.000946266 0)
(-0.0397904 0.000616687 0)
(-0.0398972 0.00027946 0)
(-0.0399206 -6.41721e-05 0)
(-0.0398593 -0.00041285 0)
(-0.0397123 -0.000765102 0)
(-0.0394792 -0.00111935 0)
(-0.0391596 -0.00147389 0)
(-0.038754 -0.00182696 0)
(-0.0382629 -0.00217669 0)
(-0.0376874 -0.00252114 0)
(-0.0370292 -0.00285829 0)
(-0.0362902 -0.00318612 0)
(-0.035473 -0.00350253 0)
(-0.0345807 -0.00380545 0)
(-0.0336166 -0.0040928 0)
(-0.0325847 -0.00436252 0)
(-0.0314896 -0.00461261 0)
(-0.0303359 -0.00484114 0)
(-0.0291291 -0.00504627 0)
(-0.0278749 -0.00522628 0)
(-0.0265794 -0.00537958 0)
(-0.0252489 -0.00550473 0)
(-0.0238903 -0.00560047 0)
(-0.0225106 -0.00566575 0)
(-0.021117 -0.00569971 0)
(-0.0197169 -0.00570174 0)
(-0.0183178 -0.00567146 0)
(-0.0169274 -0.00560876 0)
(-0.0155531 -0.00551378 0)
(-0.0142024 -0.00538697 0)
(-0.0128827 -0.00522903 0)
(-0.0116012 -0.00504099 0)
(-0.0103647 -0.00482415 0)
(-0.0091798 -0.00458016 0)
(-0.0080525 -0.00431094 0)
(-0.00698844 -0.00401877 0)
(-0.00599266 -0.00370627 0)
(-0.00506954 -0.00337639 0)
(-0.00422274 -0.0030325 0)
(-0.0034551 -0.00267835 0)
(-0.00276859 -0.00231816 0)
(-0.0021642 -0.00195668 0)
(-0.00164188 -0.00159922 0)
(-0.00120042 -0.0012518 0)
(-0.000837409 -0.00092121 0)
(-0.000549149 -0.000615196 0)
(-0.000330552 -0.000342589 0)
(-0.000175081 -0.00011352 0)
(-7.46788e-05 6.03484e-05 0)
(-1.96509e-05 0.000165609 0)
(1.6476e-06 0.000186797 0)
(2.72931e-06 0.000104812 0)
(-1.02682e-05 2.90407e-05 0)
(-7.93987e-05 0.000218435 0)
(-0.000241493 0.000501983 0)
(-0.000490674 0.000850972 0)
(-0.000826261 0.00124327 0)
(-0.00124942 0.00166097 0)
(-0.00175987 0.00208973 0)
(-0.00235613 0.00251833 0)
(-0.00303586 0.00293808 0)
(-0.00379595 0.00334242 0)
(-0.0046326 0.00372646 0)
(-0.00554147 0.0040867 0)
(-0.0065178 0.00442075 0)
(-0.00755649 0.00472707 0)
(-0.00865225 0.00500483 0)
(-0.00979963 0.00525373 0)
(-0.0109931 0.00547383 0)
(-0.0122271 0.00566551 0)
(-0.0134962 0.00582936 0)
(-0.014795 0.0059661 0)
(-0.0161179 0.00607651 0)
(-0.01746 0.00616144 0)
(-0.0188159 0.0062217 0)
(-0.0201807 0.00625811 0)
(-0.0215494 0.00627141 0)
(-0.0229174 0.00626231 0)
(-0.0242798 0.00623143 0)
(-0.0256321 0.00617933 0)
(-0.0269699 0.0061065 0)
(-0.0282886 0.00601335 0)
(-0.029584 0.00590023 0)
(-0.0308518 0.00576745 0)
(-0.0320877 0.00561526 0)
(-0.0332876 0.00544386 0)
(-0.0344473 0.00525348 0)
(-0.0355628 0.00504428 0)
(-0.0366301 0.00481647 0)
(-0.0376451 0.00457028 0)
(-0.0386042 0.00430594 0)
(-0.0395033 0.00402376 0)
(-0.0403388 0.00372411 0)
(-0.041107 0.00340742 0)
(-0.0418046 0.00307424 0)
(-0.042428 0.00272519 0)
(-0.0429741 0.00236101 0)
(-0.0434399 0.00198258 0)
(-0.0438226 0.00159089 0)
(-0.0441196 0.00118707 0)
(-0.0443285 0.000772391 0)
(-0.0444474 0.000348271 0)
(-0.0444746 -8.37311e-05 0)
(-0.0444087 -0.000521914 0)
(-0.0442487 -0.000964436 0)
(-0.0439939 -0.00140932 0)
(-0.0436444 -0.00185446 0)
(-0.0432002 -0.00229765 0)
(-0.0426622 -0.00273655 0)
(-0.0420315 -0.00316876 0)
(-0.0413099 -0.00359179 0)
(-0.0404996 -0.0040031 0)
(-0.0396033 -0.00440011 0)
(-0.0386243 -0.00478024 0)
(-0.0375663 -0.0051409 0)
(-0.0364337 -0.00547956 0)
(-0.0352313 -0.00579374 0)
(-0.0339643 -0.00608104 0)
(-0.0326385 -0.00633919 0)
(-0.03126 -0.00656606 0)
(-0.0298355 -0.00675966 0)
(-0.028372 -0.00691823 0)
(-0.0268768 -0.00704022 0)
(-0.0253574 -0.00712429 0)
(-0.0238218 -0.00716942 0)
(-0.0222779 -0.00717482 0)
(-0.0207339 -0.00714005 0)
(-0.019198 -0.00706495 0)
(-0.0176785 -0.00694972 0)
(-0.0161834 -0.0067949 0)
(-0.0147208 -0.00660138 0)
(-0.0132984 -0.00637044 0)
(-0.0119237 -0.00610371 0)
(-0.0106038 -0.00580322 0)
(-0.00934535 -0.00547139 0)
(-0.00815444 -0.00511105 0)
(-0.0070366 -0.00472544 0)
(-0.00599663 -0.00431824 0)
(-0.00503858 -0.00389359 0)
(-0.00416564 -0.00345612 0)
(-0.00338005 -0.00301103 0)
(-0.00268308 -0.00256406 0)
(-0.00207487 -0.00212167 0)
(-0.00155442 -0.00169104 0)
(-0.00111951 -0.00128024 0)
(-0.000766596 -0.000898343 0)
(-0.000490818 -0.00055557 0)
(-0.00028591 -0.000263517 0)
(-0.000144142 -3.53726e-05 0)
(-5.62262e-05 0.000113864 0)
(-1.16538e-05 0.000167068 0)
(5.82461e-07 0.000103387 0)
(-1.33806e-05 7.35954e-05 0)
(-9.90115e-05 0.000353202 0)
(-0.00029548 0.000728187 0)
(-0.000592444 0.00116946 0)
(-0.000986631 0.0016542 0)
(-0.00147772 0.00216369 0)
(-0.00206416 0.00268272 0)
(-0.0027434 0.00319926 0)
(-0.00351224 0.00370386 0)
(-0.00436686 0.00418928 0)
(-0.00530288 0.00465008 0)
(-0.00631548 0.00508231 0)
(-0.00739943 0.00548321 0)
(-0.00854928 0.00585102 0)
(-0.00975935 0.00618471 0)
(-0.0110238 0.00648387 0)
(-0.0123369 0.00674854 0)
(-0.0136926 0.00697911 0)
(-0.0150852 0.0071762 0)
(-0.0165089 0.0073406 0)
(-0.017958 0.0074732 0)
(-0.0194268 0.00757494 0)
(-0.02091 0.00764675 0)
(-0.0224022 0.00768957 0)
(-0.023898 0.00770425 0)
(-0.0253924 0.00769161 0)
(-0.0268804 0.00765237 0)
(-0.0283569 0.00758718 0)
(-0.0298171 0.00749661 0)
(-0.0312563 0.00738116 0)
(-0.0326698 0.00724125 0)
(-0.0340529 0.00707723 0)
(-0.035401 0.00688942 0)
(-0.0367097 0.0066781 0)
(-0.0379745 0.0064435 0)
(-0.0391909 0.00618589 0)
(-0.0403546 0.00590551 0)
(-0.0414615 0.00560266 0)
(-0.0425071 0.00527764 0)
(-0.0434875 0.00493086 0)
(-0.0443986 0.00456279 0)
(-0.0452365 0.00417397 0)
(-0.0459974 0.00376508 0)
(-0.0466776 0.00333692 0)
(-0.0472739 0.00289039 0)
(-0.0477828 0.00242659 0)
(-0.0482013 0.00194673 0)
(-0.0485268 0.00145221 0)
(-0.0487567 0.000944577 0)
(-0.0488888 0.000425571 0)
(-0.0489213 -0.000102908 0)
(-0.0488527 -0.000638787 0)
(-0.0486821 -0.00117983 0)
(-0.0484086 -0.00172362 0)
(-0.0480322 -0.00226763 0)
(-0.0475531 -0.00280916 0)
(-0.0469722 -0.00334539 0)
(-0.0462906 -0.00387341 0)
(-0.0455102 -0.00439021 0)
(-0.0446334 -0.00489272 0)
(-0.0436632 -0.00537783 0)
(-0.0426029 -0.0058424 0)
(-0.0414567 -0.00628333 0)
(-0.0402291 -0.00669755 0)
(-0.0389252 -0.00708207 0)
(-0.0375507 -0.00743399 0)
(-0.0361117 -0.00775058 0)
(-0.0346148 -0.00802924 0)
(-0.0330672 -0.0082676 0)
(-0.0314763 -0.00846351 0)
(-0.0298499 -0.0086151 0)
(-0.0281963 -0.00872077 0)
(-0.0265237 -0.00877925 0)
(-0.0248408 -0.00878963 0)
(-0.0231564 -0.00875132 0)
(-0.0214792 -0.00866417 0)
(-0.0198182 -0.00852841 0)
(-0.018182 -0.00834468 0)
(-0.0165792 -0.00811407 0)
(-0.0150183 -0.00783811 0)
(-0.0135073 -0.00751878 0)
(-0.0120538 -0.00715855 0)
(-0.0106651 -0.00676033 0)
(-0.00934767 -0.00632754 0)
(-0.00810764 -0.00586409 0)
(-0.00695023 -0.00537442 0)
(-0.00587989 -0.0048635 0)
(-0.00490017 -0.00433687 0)
(-0.00401368 -0.00380071 0)
(-0.00322196 -0.00326185 0)
(-0.00252546 -0.00272787 0)
(-0.00192345 -0.00220715 0)
(-0.00141396 -0.00170902 0)
(-0.000993737 -0.00124386 0)
(-0.000658234 -0.000823258 0)
(-0.000401565 -0.000460177 0)
(-0.000216443 -0.000169209 0)
(-9.41013e-05 3.32473e-05 0)
(-2.528e-05 0.000128702 0)
(-1.56052e-06 9.50273e-05 0)
(-1.63745e-05 0.00012805 0)
(-0.000118183 0.000514716 0)
(-0.000348655 0.000995415 0)
(-0.000693156 0.00154106 0)
(-0.00114587 0.00212852 0)
(-0.00170497 0.00273856 0)
(-0.00236756 0.0033554 0)
(-0.00312995 0.00396641 0)
(-0.00398799 0.00456155 0)
(-0.0049371 0.00513308 0)
(-0.00597223 0.00567509 0)
(-0.00708802 0.00618327 0)
(-0.00827878 0.00665457 0)
(-0.00953861 0.007087 0)
(-0.0108615 0.0074794 0)
(-0.0122412 0.00783127 0)
(-0.0136716 0.00814263 0)
(-0.0151465 0.00841387 0)
(-0.0166598 0.00864566 0)
(-0.0182053 0.00883887 0)
(-0.0197771 0.00899447 0)
(-0.0213692 0.00911352 0)
(-0.0229759 0.00919706 0)
(-0.0245915 0.00924612 0)
(-0.0262104 0.00926168 0)
(-0.0278272 0.00924466 0)
(-0.0294365 0.00919589 0)
(-0.031033 0.0091161 0)
(-0.0326115 0.00900595 0)
(-0.0341671 0.00886602 0)
(-0.0356946 0.00869679 0)
(-0.0371891 0.00849869 0)
(-0.0386457 0.00827208 0)
(-0.0400596 0.00801731 0)
(-0.041426 0.00773468 0)
(-0.0427401 0.00742449 0)
(-0.0439975 0.00708707 0)
(-0.0451933 0.00672277 0)
(-0.0463233 0.006332 0)
(-0.0473828 0.00591525 0)
(-0.0483677 0.00547309 0)
(-0.0492738 0.0050062 0)
(-0.0500969 0.00451542 0)
(-0.0508333 0.00400169 0)
(-0.0514793 0.00346614 0)
(-0.0520313 0.00291006 0)
(-0.0524862 0.00233493 0)
(-0.052841 0.00174242 0)
(-0.053093 0.0011344 0)
(-0.0532399 0.000512918 0)
(-0.0532797 -0.000119742 0)
(-0.0532108 -0.000761114 0)
(-0.0530322 -0.00140853 0)
(-0.0527431 -0.00205915 0)
(-0.0523432 -0.00270994 0)
(-0.0518329 -0.0033577 0)
(-0.0512129 -0.00399911 0)
(-0.0504846 -0.0046307 0)
(-0.04965 -0.00524892 0)
(-0.0487114 -0.00585012 0)
(-0.047672 -0.00643063 0)
(-0.0465354 -0.00698674 0)
(-0.0453059 -0.00751477 0)
(-0.0439883 -0.00801109 0)