/*--------------------------------*- C++ -*----------------------------------*\
| =========                 |                                                 |
| \\      /  F ield         | OpenFOAM: The Open Source CFD Toolbox           |
|  \\    /   O peration     | Version:  2512                                  |
|   \\  /    A nd           | Website:  www.openfoam.com                      |
|    \\/     M anipulation  |                                                 |
\*---------------------------------------------------------------------------*/
FoamFile
{
    version     2.0;
    format      ascii;
    arch        "LSB;label=32;scalar=64";
    class       volVectorField;
    location    "0.4";
    object      U;
}
// * * * * * * * * * * * * * * * * * * * * * * * * * * * * * * * * * * * * * //

dimensions      [0 1 -1 0 0 0 0];

internalField   nonuniform List<vector> 
10000
(
(2.78071e-06 -4.09045e-06 0)
(1.58345e-05 -1.11609e-05 0)
(3.76806e-05 -1.31655e-05 0)
(5.7986e-05 -1.0462e-05 0)
(6.94904e-05 -6.1622e-06 0)
(6.96178e-05 -1.5615e-06 0)
(5.82208e-05 2.66395e-06 0)
(3.57703e-05 6.50461e-06 0)
(2.9997e-06 9.93374e-06 0)
(-3.94483e-05 1.29732e-05 0)
(-9.06257e-05 1.57551e-05 0)
(-0.000149748 1.81607e-05 0)
(-0.000216154 2.02322e-05 0)
(-0.000288839 2.20521e-05 0)
(-0.000367252 2.3616e-05 0)
(-0.00045072 2.49626e-05 0)
(-0.000538439 2.6163e-05 0)
(-0.000629955 2.7192e-05 0)
(-0.000724664 2.80037e-05 0)
(-0.00082196 2.86505e-05 0)
(-0.000921388 2.91813e-05 0)
(-0.0010225 2.95845e-05 0)
(-0.00112483 2.98536e-05 0)
(-0.00122796 3.00096e-05 0)
(-0.0013315 3.00621e-05 0)
(-0.0014351 2.99844e-05 0)
(-0.00153838 2.97971e-05 0)
(-0.00164102 2.95409e-05 0)
(-0.00174266 2.9213e-05 0)
(-0.00184301 2.88068e-05 0)
(-0.00194176 2.83137e-05 0)
(-0.00203859 2.77342e-05 0)
(-0.00213321 2.70771e-05 0)
(-0.00222531 2.63254e-05 0)
(-0.00231459 2.54743e-05 0)
(-0.00240075 2.45434e-05 0)
(-0.00248346 2.35409e-05 0)
(-0.00256246 2.24641e-05 0)
(-0.00263744 2.12965e-05 0)
(-0.00270808 2.00195e-05 0)
(-0.00277407 1.86466e-05 0)
(-0.00283512 1.72025e-05 0)
(-0.00289093 1.56833e-05 0)
(-0.00294122 1.40747e-05 0)
(-0.00298573 1.23795e-05 0)
(-0.00302417 1.06049e-05 0)
(-0.00305625 8.74831e-06 0)
(-0.00308174 6.80849e-06 0)
(-0.00310039 4.79387e-06 0)
(-0.003112 2.71595e-06 0)
(-0.00311637 5.83694e-07 0)
(-0.00311334 -1.59682e-06 0)
(-0.00310276 -3.82234e-06 0)
(-0.00308455 -6.08835e-06 0)
(-0.00305861 -8.38097e-06 0)
(-0.00302494 -1.06758e-05 0)
(-0.00298356 -1.29493e-05 0)
(-0.00293455 -1.5189e-05 0)
(-0.00287803 -1.73895e-05 0)
(-0.00281418 -1.95419e-05 0)
(-0.0027432 -2.16309e-05 0)
(-0.00266535 -2.36382e-05 0)
(-0.00258092 -2.55465e-05 0)
(-0.00249029 -2.73409e-05 0)
(-0.00239386 -2.90097e-05 0)
(-0.0022921 -3.05385e-05 0)
(-0.0021855 -3.19073e-05 0)
(-0.00207463 -3.30948e-05 0)
(-0.00196009 -3.40882e-05 0)
(-0.00184253 -3.48845e-05 0)
(-0.0017226 -3.54832e-05 0)
(-0.00160098 -3.58793e-05 0)
(-0.00147839 -3.60622e-05 0)
(-0.00135554 -3.60205e-05 0)
(-0.00123321 -3.57465e-05 0)
(-0.00111214 -3.52371e-05 0)
(-0.000993114 -3.44914e-05 0)
(-0.0008769 -3.35099e-05 0)
(-0.000764263 -3.22955e-05 0)
(-0.000655946 -3.08541e-05 0)
(-0.000552667 -2.91942e-05 0)
(-0.00045511 -2.73276e-05 0)
(-0.000363911 -2.52715e-05 0)
(-0.000279657 -2.30466e-05 0)
(-0.00020288 -2.06712e-05 0)
(-0.000134058 -1.81589e-05 0)
(-7.36068e-05 -1.55208e-05 0)
(-2.18773e-05 -1.27729e-05 0)
(2.08616e-05 -9.94008e-06 0)
(5.44342e-05 -7.05244e-06 0)
(7.87769e-05 -4.14506e-06 0)
(9.39668e-05 -1.26259e-06 0)
(0.000100256 1.53751e-06 0)
(9.81278e-05 4.16667e-06 0)
(8.8396e-05 6.48392e-06 0)
(7.23261e-05 8.27913e-06 0)
(5.18012e-05 9.2215e-06 0)
(2.96721e-05 8.78193e-06 0)
(1.06379e-05 6.20598e-06 0)
(1.35722e-06 1.37511e-06 0)
(3.3278e-06 -1.36072e-05 0)
(2.14409e-05 -3.22167e-05 0)
(4.72619e-05 -3.66396e-05 0)
(6.69198e-05 -2.58158e-05 0)
(6.91061e-05 -7.20903e-06 0)
(4.73649e-05 1.3742e-05 0)
(-4.21465e-07 3.51491e-05 0)
(-7.45552e-05 5.57084e-05 0)
(-0.000174749 7.49588e-05 0)
(-0.000299573 9.29143e-05 0)
(-0.00044756 0.000109325 0)
(-0.000617007 0.000124221 0)
(-0.000805937 0.000137644 0)
(-0.00101271 0.000149628 0)
(-0.00123536 0.000160144 0)
(-0.00147206 0.000169437 0)
(-0.00172128 0.000177494 0)
(-0.00198122 0.000184393 0)
(-0.00225032 0.000190194 0)
(-0.00252716 0.000194959 0)
(-0.00281026 0.000198761 0)
(-0.00309831 0.000201649 0)
(-0.00339007 0.000203704 0)
(-0.00368431 0.000204967 0)
(-0.00397987 0.000205461 0)
(-0.00427569 0.000205219 0)
(-0.00457072 0.000204263 0)
(-0.00486394 0.000202647 0)
(-0.00515439 0.000200392 0)
(-0.00544113 0.0001975 0)
(-0.00572322 0.000194003 0)
(-0.00599976 0.000189904 0)
(-0.00626985 0.000185204 0)
(-0.00653261 0.000179891 0)
(-0.00678714 0.000173948 0)
(-0.00703257 0.000167406 0)
(-0.00726804 0.000160295 0)
(-0.00749262 0.00015259 0)
(-0.00770547 0.00014426 0)
(-0.00790575 0.000135311 0)
(-0.00809258 0.00012577 0)
(-0.00826507 0.00011565 0)
(-0.00842242 0.00010496 0)
(-0.00856384 9.3708e-05 0)
(-0.00868853 8.19093e-05 0)
(-0.00879571 6.95759e-05 0)
(-0.00888467 5.67269e-05 0)
(-0.00895472 4.33932e-05 0)
(-0.00900525 2.96164e-05 0)
(-0.00903569 1.54471e-05 0)
(-0.00904554 9.41685e-07 0)
(-0.00903437 -1.3847e-05 0)
(-0.00900185 -2.88711e-05 0)
(-0.00894776 -4.40705e-05 0)
(-0.00887196 -5.93571e-05 0)
(-0.00877444 -7.46252e-05 0)
(-0.00865527 -8.97757e-05 0)
(-0.00851468 -0.000104725 0)
(-0.00835303 -0.000119394 0)
(-0.00817082 -0.000133693 0)
(-0.00796866 -0.000147525 0)
(-0.00774726 -0.000160793 0)
(-0.00750752 -0.0001734 0)
(-0.00725047 -0.000185249 0)
(-0.00697727 -0.000196241 0)
(-0.00668921 -0.000206276 0)
(-0.0063877 -0.000215254 0)
(-0.00607428 -0.000223085 0)
(-0.00575061 -0.000229695 0)
(-0.00541843 -0.000235026 0)
(-0.0050796 -0.00023903 0)
(-0.00473604 -0.000241659 0)
(-0.00438973 -0.000242866 0)
(-0.0040427 -0.000242607 0)
(-0.00369702 -0.000240854 0)
(-0.00335478 -0.000237592 0)
(-0.00301812 -0.000232816 0)
(-0.00268912 -0.000226536 0)
(-0.00236986 -0.000218775 0)
(-0.00206234 -0.000209578 0)
(-0.00176849 -0.000199005 0)
(-0.00149018 -0.000187136 0)
(-0.00122915 -0.000174065 0)
(-0.000987021 -0.000159895 0)
(-0.000765248 -0.000144733 0)
(-0.000565117 -0.000128692 0)
(-0.000387723 -0.000111902 0)
(-0.000233951 -9.45124e-05 0)
(-0.000104448 -7.6705e-05 0)
(4.2409e-07 -5.86932e-05 0)
(8.06441e-05 -4.07302e-05 0)
(0.000136604 -2.31298e-05 0)
(0.000169204 -6.29663e-06 0)
(0.000179975 9.23068e-06 0)
(0.000171243 2.27083e-05 0)
(0.000146347 3.31131e-05 0)
(0.00010984 3.90528e-05 0)
(6.78131e-05 3.86186e-05 0)
(2.91889e-05 2.94307e-05 0)
(6.05262e-06 1.05786e-05 0)
(1.7125e-06 -2.30803e-05 0)
(1.28916e-05 -5.07541e-05 0)
(2.31162e-05 -5.34019e-05 0)
(2.06009e-05 -2.68015e-05 0)
(-6.92862e-06 1.63555e-05 0)
(-6.71251e-05 6.73395e-05 0)
(-0.000163457 0.000120693 0)
(-0.000297727 0.000173634 0)
(-0.000469495 0.000224662 0)
(-0.000678005 0.000272743 0)
(-0.000921311 0.000317476 0)
(-0.00119703 0.000358615 0)
(-0.00150299 0.000396009 0)
(-0.0018364 0.000429663 0)
(-0.00219459 0.000459734 0)
(-0.00257505 0.000486224 0)
(-0.00297511 0.000509349 0)
(-0.00339225 0.000529291 0)
(-0.00382411 0.000546131 0)
(-0.0042683 0.000560071 0)
(-0.00472261 0.000571275 0)
(-0.00518496 0.000579855 0)
(-0.00565331 0.000585968 0)
(-0.00612574 0.000589781 0)
(-0.00660039 0.000591364 0)
(-0.00707549 0.000590802 0)
(-0.00754937 0.000588201 0)
(-0.00802035 0.000583629 0)
(-0.00848684 0.000577135 0)
(-0.00894733 0.000568762 0)
(-0.00940029 0.000558572 0)
(-0.00984421 0.000546607 0)
(-0.0102776 0.000532855 0)
(-0.0106991 0.000517313 0)
(-0.0111072 0.000500005 0)
(-0.0115005 0.000480941 0)
(-0.0118775 0.000460137 0)
(-0.0122368 0.000437606 0)
(-0.0125771 0.000413321 0)
(-0.012897 0.00038728 0)
(-0.013195 0.000359531 0)
(-0.0134699 0.000330125 0)
(-0.0137203 0.000299078 0)
(-0.0139449 0.000266421 0)
(-0.0141425 0.000232217 0)
(-0.0143119 0.000196531 0)
(-0.0144519 0.000159429 0)
(-0.0145616 0.000121002 0)
(-0.0146399 8.13734e-05 0)
(-0.0146861 4.06827e-05 0)
(-0.0146993 -9.18839e-07 0)
(-0.014679 -4.32743e-05 0)
(-0.0146246 -8.62171e-05 0)
(-0.0145359 -0.000129555 0)
(-0.0144127 -0.000173061 0)
(-0.014255 -0.000216484 0)
(-0.0140629 -0.000259571 0)
(-0.0138369 -0.000302079 0)
(-0.0135775 -0.000343758 0)
(-0.0132856 -0.000384349 0)
(-0.012962 -0.000423583 0)
(-0.0126081 -0.000461189 0)
(-0.0122251 -0.000496892 0)
(-0.0118149 -0.000530418 0)
(-0.0113791 -0.000561498 0)
(-0.0109198 -0.000589867 0)
(-0.0104394 -0.000615266 0)
(-0.00994006 -0.000637455 0)
(-0.00942451 -0.000656224 0)
(-0.00889547 -0.000671391 0)
(-0.00835585 -0.000682801 0)
(-0.00780866 -0.000690313 0)
(-0.00725699 -0.000693803 0)
(-0.00670405 -0.00069317 0)
(-0.00615307 -0.000688348 0)
(-0.00560733 -0.000679306 0)
(-0.00507012 -0.000666049 0)
(-0.00454471 -0.000648613 0)
(-0.00403427 -0.000627077 0)
(-0.00354193 -0.000601562 0)
(-0.00307068 -0.000572233 0)
(-0.0026234 -0.000539301 0)
(-0.00220279 -0.000503016 0)
(-0.00181136 -0.000463661 0)
(-0.00145135 -0.000421548 0)
(-0.00112474 -0.000377027 0)
(-0.000833194 -0.000330496 0)
(-0.000578023 -0.000282412 0)
(-0.000360144 -0.000233312 0)
(-0.000180009 -0.000183823 0)
(-3.75257e-05 -0.000134687 0)
(6.80442e-05 -8.68051e-05 0)
(0.000138196 -4.12937e-05 0)
(0.000175327 4.30236e-07 0)
(0.000182923 3.65396e-05 0)
(0.000165769 6.46822e-05 0)
(0.000130094 8.18578e-05 0)
(8.3785e-05 8.43351e-05 0)
(3.80396e-05 6.78674e-05 0)
(8.49335e-06 2.92731e-05 0)
(6.69733e-07 -2.7699e-05 0)
(2.13931e-06 -5.48841e-05 0)
(-9.3622e-06 -4.60073e-05 0)
(-4.41121e-05 4.10145e-06 0)
(-0.000112192 8.04757e-05 0)
(-0.000221274 0.000170269 0)
(-0.000375754 0.000265704 0)
(-0.000576969 0.000361789 0)
(-0.000825701 0.000455407 0)
(-0.00112069 0.000544596 0)
(-0.00145993 0.000628349 0)
(-0.00184108 0.00070582 0)
(-0.00226109 0.000776756 0)
(-0.00271691 0.000841036 0)
(-0.0032052 0.000898654 0)
(-0.00372267 0.000949718 0)
(-0.00426605 0.000994484 0)
(-0.00483208 0.00103312 0)
(-0.00541763 0.00106595 0)
(-0.00601966 0.00109322 0)
(-0.00663526 0.00111516 0)
(-0.0072616 0.00113207 0)
(-0.00789596 0.00114417 0)
(-0.00853576 0.00115171 0)
(-0.00917856 0.00115487 0)
(-0.00982193 0.00115384 0)
(-0.0104635 0.00114879 0)
(-0.0111012 0.00113983 0)
(-0.0117327 0.00112708 0)
(-0.0123559 0.00111064 0)
(-0.0129688 0.00109056 0)
(-0.0135693 0.00106694 0)
(-0.0141554 0.00103981 0)
(-0.0147251 0.00100915 0)
(-0.0152765 0.000975009 0)
(-0.0158076 0.000937444 0)
(-0.0163165 0.000896451 0)
(-0.0168013 0.000852024 0)
(-0.0172601 0.000804196 0)
(-0.0176909 0.000753009 0)
(-0.0180921 0.000698503 0)
(-0.0184616 0.000640739 0)
(-0.0187979 0.000579794 0)
(-0.0190992 0.000515762 0)
(-0.0193638 0.000448757 0)
(-0.0195901 0.000378913 0)
(-0.0197768 0.000306388 0)
(-0.0199224 0.000231373 0)
(-0.0200258 0.000154103 0)
(-0.0200857 7.48446e-05 0)
(-0.0201012 -6.11059e-06 0)
(-0.0200715 -8.84513e-05 0)
(-0.0199962 -0.000171837 0)
(-0.0198747 -0.000255887 0)
(-0.0197069 -0.000340174 0)
(-0.0194929 -0.000424248 0)
(-0.0192328 -0.000507646 0)
(-0.0189274 -0.000589893 0)
(-0.0185772 -0.000670499 0)
(-0.0181836 -0.000748959 0)
(-0.0177477 -0.000824758 0)
(-0.0172712 -0.000897371 0)
(-0.0167559 -0.000966279 0)
(-0.0162042 -0.00103097 0)
(-0.0156185 -0.00109093 0)
(-0.0150014 -0.00114566 0)
(-0.0143559 -0.00119468 0)
(-0.0136852 -0.00123755 0)
(-0.0129928 -0.00127386 0)
(-0.0122823 -0.00130326 0)
(-0.0115575 -0.00132544 0)
(-0.0108224 -0.00134012 0)
(-0.0100812 -0.00134708 0)
(-0.00933791 -0.00134613 0)
(-0.00859696 -0.00133716 0)
(-0.00786264 -0.00132014 0)
(-0.00713926 -0.00129507 0)
(-0.00643111 -0.00126205 0)
(-0.00574238 -0.00122123 0)
(-0.00507714 -0.00117284 0)
(-0.00443936 -0.0011172 0)
(-0.00383279 -0.00105471 0)
(-0.00326097 -0.00098584 0)
(-0.00272716 -0.000911123 0)
(-0.00223429 -0.000831177 0)
(-0.00178491 -0.000746699 0)
(-0.00138116 -0.000658489 0)
(-0.00102472 -0.000567457 0)
(-0.000716724 -0.000474656 0)
(-0.000457674 -0.000381305 0)
(-0.000247378 -0.000288829 0)
(-8.48198e-05 -0.000198932 0)
(3.19481e-05 -0.000113674 0)
(0.000105946 -3.55762e-05 0)
(0.000141453 3.22321e-05 0)
(0.00014419 8.58777e-05 0)
(0.0001214 0.000120607 0)
(8.20495e-05 0.000130721 0)
(3.86742e-05 0.000109737 0)
(8.92706e-06 5.09632e-05 0)
(-6.67996e-07 -2.64641e-05 0)
(-1.05557e-05 -4.0113e-05 0)
(-4.83378e-05 -8.00515e-06 0)
(-0.000120822 7.57122e-05 0)
(-0.000236378 0.000193799 0)
(-0.000401757 0.000330839 0)
(-0.000620371 0.000476682 0)
(-0.000894555 0.000624345 0)
(-0.00122414 0.000769059 0)
(-0.00160821 0.000908071 0)
(-0.00204467 0.00103913 0)
(-0.00253064 0.00116113 0)
(-0.00306299 0.00127331 0)
(-0.0036381 0.00137535 0)
(-0.00425221 0.00146717 0)
(-0.00490152 0.00154885 0)
(-0.00558211 0.00162064 0)
(-0.00629016 0.0016828 0)
(-0.00702193 0.00173571 0)
(-0.00777377 0.00177974 0)
(-0.00854214 0.00181527 0)
(-0.00932358 0.00184268 0)
(-0.0101148 0.00186234 0)
(-0.0109127 0.00187457 0)
(-0.011714 0.00187967 0)
(-0.0125159 0.00187793 0)
(-0.0133155 0.0018696 0)
(-0.01411 0.00185489 0)
(-0.0148967 0.00183394 0)
(-0.0156729 0.00180694 0)
(-0.0164361 0.00177402 0)
(-0.0171836 0.00173523 0)
(-0.0179129 0.00169064 0)
(-0.0186217 0.00164034 0)
(-0.0193074 0.00158436 0)
(-0.0199675 0.00152274 0)
(-0.0205998 0.00145552 0)
(-0.0212018 0.00138275 0)
(-0.0217712 0.00130445 0)
(-0.0223056 0.0012207 0)
(-0.0228027 0.0011316 0)
(-0.0232605 0.00103724 0)
(-0.0236766 0.000937738 0)
(-0.024049 0.000833283 0)
(-0.0243757 0.000724073 0)
(-0.0246548 0.000610331 0)
(-0.0248845 0.000492325 0)
(-0.0250631 0.000370387 0)
(-0.0251892 0.000244901 0)
(-0.0252615 0.000116292 0)
(-0.0252787 -1.497e-05 0)
(-0.0252401 -0.000148371 0)
(-0.0251448 -0.000283351 0)
(-0.0249925 -0.000419295 0)
(-0.024783 -0.000555531 0)
(-0.0245164 -0.000691345 0)
(-0.024193 -0.000826006 0)
(-0.0238137 -0.00095876 0)
(-0.0233792 -0.00108882 0)
(-0.0228911 -0.00121536 0)
(-0.022351 -0.00133756 0)
(-0.0217609 -0.0014546 0)
(-0.0211231 -0.00156564 0)
(-0.0204404 -0.00166986 0)
(-0.0197158 -0.00176647 0)
(-0.0189525 -0.00185466 0)
(-0.0181542 -0.0019337 0)
(-0.0173248 -0.00200288 0)
(-0.0164686 -0.00206156 0)
(-0.0155899 -0.00210918 0)
(-0.0146933 -0.00214522 0)
(-0.0137839 -0.00216925 0)
(-0.0128664 -0.00218091 0)
(-0.0119461 -0.00217994 0)
(-0.0110282 -0.00216617 0)
(-0.0101179 -0.00213953 0)
(-0.00922043 -0.00210007 0)
(-0.008341 -0.00204794 0)
(-0.00748468 -0.00198338 0)
(-0.00665644 -0.00190679 0)
(-0.00586105 -0.00181868 0)
(-0.00510308 -0.00171966 0)
(-0.00438678 -0.0016105 0)
(-0.00371608 -0.00149207 0)
(-0.0030945 -0.00136536 0)
(-0.0025251 -0.00123151 0)
(-0.00201044 -0.00109184 0)
(-0.00155251 -0.000947825 0)
(-0.00115263 -0.000801157 0)
(-0.00081138 -0.000653787 0)
(-0.000528517 -0.000507974 0)
(-0.000302846 -0.000366363 0)
(-0.000132114 -0.000232096 0)
(-1.28949e-05 -0.000108923 0)
(5.95801e-05 -1.36231e-06 0)
(9.15836e-05 8.51339e-05 0)
(9.09455e-05 0.000144025 0)
(6.72557e-05 0.000167578 0)
(3.36247e-05 0.00014685 0)
(8.13065e-06 7.12991e-05 0)
(-2.48352e-06 -1.84541e-05 0)
(-2.58304e-05 -4.53547e-06 0)
(-9.2587e-05 6.3965e-05 0)
(-0.000207039 0.000192406 0)
(-0.000374617 0.000361479 0)
(-0.000600739 0.00055445 0)
(-0.000888645 0.000758629 0)
(-0.00123941 0.000965553 0)
(-0.00165313 0.00116916 0)
(-0.00212834 0.00136517 0)
(-0.00266286 0.00155087 0)
(-0.00325357 0.00172431 0)
(-0.00389691 0.00188435 0)
(-0.00458897 0.0020304 0)
(-0.00532557 0.00216214 0)
(-0.00610242 0.00227968 0)
(-0.00691522 0.0023832 0)
(-0.00775959 0.00247304 0)
(-0.00863124 0.00254964 0)
(-0.00952604 0.00261345 0)
(-0.0104399 0.002665 0)
(-0.0113688 0.00270479 0)
(-0.0123089 0.00273329 0)
(-0.0132566 0.00275095 0)
(-0.0142082 0.00275821 0)
(-0.0151601 0.00275544 0)
(-0.0161091 0.00274294 0)
(-0.0170518 0.00272105 0)
(-0.0179851 0.00269001 0)
(-0.0189056 0.00265002 0)
(-0.0198105 0.00260126 0)
(-0.0206966 0.00254389 0)
(-0.0215609 0.00247797 0)
(-0.0224006 0.00240361 0)
(-0.0232126 0.00232092 0)
(-0.0239941 0.00222995 0)
(-0.0247423 0.00213074 0)
(-0.0254544 0.00202339 0)
(-0.0261276 0.00190799 0)
(-0.0267591 0.00178464 0)
(-0.0273463 0.00165346 0)
(-0.0278866 0.00151463 0)
(-0.0283775 0.00136836 0)
(-0.0288165 0.00121491 0)
(-0.0292012 0.00105458 0)
(-0.0295295 0.000887724 0)
(-0.0297993 0.00071475 0)
(-0.0300088 0.000536146 0)
(-0.0301562 0.000352479 0)
(-0.0302399 0.000164379 0)
(-0.0302587 -2.74737e-05 0)
(-0.0302116 -0.00022233 0)
(-0.0300978 -0.000419365 0)
(-0.0299168 -0.000617676 0)
(-0.0296685 -0.0008163 0)
(-0.0293529 -0.00101422 0)
(-0.0289706 -0.0012104 0)
(-0.0285225 -0.00140372 0)
(-0.0280097 -0.00159304 0)
(-0.0274338 -0.0017772 0)
(-0.0267968 -0.001955 0)
(-0.0261011 -0.00212525 0)
(-0.0253494 -0.00228678 0)
(-0.0245449 -0.00243838 0)
(-0.0236911 -0.00257893 0)
(-0.0227919 -0.00270728 0)
(-0.0218514 -0.00282237 0)
(-0.0208743 -0.00292321 0)
(-0.0198653 -0.00300888 0)
(-0.0188298 -0.00307856 0)
(-0.017773 -0.00313151 0)
(-0.0167005 -0.00316711 0)
(-0.0156183 -0.00318485 0)
(-0.0145321 -0.00318438 0)
(-0.0134481 -0.00316546 0)
(-0.0123723 -0.003128 0)
(-0.0113107 -0.00307207 0)
(-0.0102695 -0.00299789 0)
(-0.00925435 -0.00290585 0)
(-0.00827114 -0.0027965 0)
(-0.00732536 -0.00267059 0)
(-0.00642226 -0.00252903 0)
(-0.00556676 -0.0023729 0)
(-0.00476339 -0.00220347 0)
(-0.00401619 -0.00202221 0)
(-0.00332869 -0.00183078 0)
(-0.00270384 -0.00163108 0)
(-0.00214391 -0.00142527 0)
(-0.00165042 -0.00121579 0)
(-0.00122406 -0.00100543 0)
(-0.000864583 -0.00079738 0)
(-0.000570728 -0.000595337 0)
(-0.000340084 -0.000403603 0)
(-0.000169004 -0.000227229 0)
(-5.24674e-05 -7.21641e-05 0)
(1.6065e-05 5.45477e-05 0)
(4.46934e-05 0.000144586 0)
(4.32787e-05 0.000188193 0)
(2.48476e-05 0.000173973 0)
(6.63114e-06 8.78361e-05 0)
(-4.87971e-06 -2.30212e-06 0)
(-4.27398e-05 5.43135e-05 0)
(-0.000140853 0.000173005 0)
(-0.000299689 0.000357325 0)
(-0.000522228 0.000587721 0)
(-0.000812519 0.000844844 0)
(-0.00117251 0.00111531 0)
(-0.0016029 0.0013888 0)
(-0.00210294 0.00165804 0)
(-0.00267093 0.00191772 0)
(-0.00330422 0.00216422 0)
(-0.00399948 0.00239509 0)
(-0.0047528 0.00260864 0)
(-0.00555993 0.00280394 0)
(-0.00641632 0.00298055 0)
(-0.00731729 0.00313841 0)
(-0.00825812 0.00327767 0)
(-0.00923401 0.00339874 0)
(-0.0102403 0.00350208 0)
(-0.0112722 0.00358826 0)
(-0.0123253 0.0036579 0)
(-0.0133951 0.00371161 0)
(-0.0144773 0.00375 0)
(-0.0155676 0.00377363 0)
(-0.0166621 0.00378305 0)
(-0.0177567 0.00377877 0)
(-0.0188476 0.00376119 0)
(-0.0199309 0.00373068 0)
(-0.0210031 0.0036876 0)
(-0.0220605 0.00363225 0)
(-0.0230996 0.00356482 0)
(-0.0241168 0.00348551 0)
(-0.0251089 0.00339449 0)
(-0.0260723 0.00329189 0)
(-0.0270038 0.00317782 0)
(-0.0279 0.00305239 0)
(-0.0287578 0.0029157 0)
(-0.0295739 0.00276787 0)
(-0.030345 0.00260904 0)
(-0.0310682 0.00243937 0)
(-0.0317404 0.00225905 0)
(-0.0323587 0.00206832 0)
(-0.0329201 0.0018675 0)
(-0.0334219 0.00165696 0)
(-0.0338614 0.00143711 0)
(-0.0342363 0.00120846 0)
(-0.0345442 0.000971583 0)
(-0.0347829 0.000727167 0)
(-0.0349505 0.000475984 0)
(-0.0350454 0.000218877 0)
(-0.035066 -4.32152e-05 0)
(-0.0350114 -0.000309258 0)
(-0.0348806 -0.000578123 0)
(-0.0346732 -0.000848594 0)
(-0.0343889 -0.00111938 0)
(-0.0340279 -0.00138911 0)
(-0.0335909 -0.00165636 0)
(-0.0330789 -0.00191964 0)
(-0.0324932 -0.00217742 0)
(-0.0318356 -0.00242811 0)
(-0.0311084 -0.00267012 0)
(-0.0303143 -0.00290184 0)
(-0.0294564 -0.00312168 0)
(-0.0285382 -0.00332805 0)
(-0.0275638 -0.00351941 0)
(-0.0265375 -0.00369425 0)
(-0.025464 -0.00385115 0)
(-0.0243485 -0.00398877 0)
(-0.0231965 -0.00410589 0)
(-0.0220138 -0.00420139 0)
(-0.0208064 -0.0042743 0)
(-0.0195806 -0.00432378 0)
(-0.018343 -0.00434915 0)
(-0.0171003 -0.00434995 0)
(-0.0158591 -0.00432585 0)
(-0.0146264 -0.00427676 0)
(-0.013409 -0.00420278 0)
(-0.0122135 -0.0041042 0)
(-0.0110467 -0.00398157 0)
(-0.00991485 -0.00383564 0)
(-0.00882431 -0.00366743 0)
(-0.00778094 -0.00347815 0)
(-0.00679025 -0.00326928 0)
(-0.00585731 -0.00304256 0)
(-0.00498666 -0.00279997 0)
(-0.00418227 -0.00254377 0)
(-0.00344746 -0.00227654 0)
(-0.00278478 -0.00200117 0)
(-0.00219598 -0.00172095 0)
(-0.0016819 -0.00143958 0)
(-0.00124237 -0.00116128 0)
(-0.000876134 -0.000890845 0)
(-0.000580772 -0.000633798 0)
(-0.000352573 -0.000396516 0)
(-0.000186452 -0.000186389 0)
(-7.58309e-05 -1.20323e-05 0)
(-1.25832e-05 0.000116507 0)
(1.31288e-05 0.000187546 0)
(1.3734e-05 0.00018743 0)
(4.75131e-06 9.90805e-05 0)
(-7.5355e-06 2.282e-05 0)
(-6.08202e-05 0.000138129 0)
(-0.000191558 0.000320663 0)
(-0.000396269 0.000573229 0)
(-0.000675573 0.000874433 0)
(-0.00103202 0.00120477 0)
(-0.00146624 0.00154903 0)
(-0.00197798 0.00189603 0)
(-0.00256595 0.00223724 0)
(-0.00322775 0.00256655 0)
(-0.00396028 0.00287947 0)
(-0.0047599 0.00317291 0)
(-0.00562236 0.00344483 0)
(-0.006543 0.00369392 0)
(-0.00751695 0.00391956 0)
(-0.00853918 0.00412151 0)
(-0.00960459 0.00429994 0)
(-0.010708 0.00445521 0)
(-0.0118443 0.00458783 0)
(-0.0130085 0.0046985 0)
(-0.0141955 0.00478793 0)
(-0.0154005 0.0048568 0)
(-0.0166188 0.00490583 0)
(-0.0178457 0.00493579 0)
(-0.0190768 0.00494729 0)
(-0.0203075 0.00494089 0)
(-0.0215337 0.00491716 0)
(-0.0227511 0.00487661 0)
(-0.0239557 0.0048196 0)
(-0.0251433 0.00474651 0)
(-0.0263101 0.00465763 0)
(-0.0274522 0.0045532 0)
(-0.0285656 0.00443345 0)
(-0.0296467 0.00429856 0)
(-0.0306918 0.00414869 0)
(-0.0316971 0.00398396 0)
(-0.0326589 0.00380455 0)
(-0.0335738 0.00361063 0)
(-0.0344381 0.0034024 0)
(-0.0352485 0.00318006 0)
(-0.0360015 0.00294389 0)
(-0.0366939 0.00269426 0)
(-0.0373225 0.00243158 0)
(-0.0378842 0.00215631 0)
(-0.0383761 0.00186905 0)
(-0.0387956 0.00157045 0)
(-0.03914 0.00126129 0)
(-0.039407 0.000942471 0)
(-0.0395945 0.000614995 0)
(-0.0397006 0.000279965 0)
(-0.0397239 -6.13965e-05 0)
(-0.039663 -0.000407741 0)
(-0.039517 -0.000757602 0)
(-0.0392855 -0.00110941 0)
(-0.0389682 -0.0014615 0)
(-0.0385654 -0.00181212 0)
(-0.0380778 -0.00215942 0)
(-0.0375065 -0.0025015 0)
(-0.036853 -0.00283635 0)
(-0.0361193 -0.00316196 0)
(-0.0353079 -0.00347628 0)
(-0.0344218 -0.00377725 0)
(-0.0334646 -0.00406283 0)
(-0.03244 -0.00433098 0)
(-0.0313524 -0.0045797 0)
(-0.0302067 -0.00480709 0)
(-0.0290082 -0.00501133 0)
(-0.0277624 -0.00519071 0)
(-0.0264754 -0.00534365 0)
(-0.0251537 -0.00546872 0)
(-0.0238038 -0.00556467 0)
(-0.0224327 -0.00563045 0)
(-0.0210476 -0.00566518 0)
(-0.0196559 -0.00566827 0)
(-0.018265 -0.00563932 0)
(-0.0168823 -0.0055782 0)
(-0.0155155 -0.00548504 0)
(-0.0141718 -0.00536025 0)
(-0.0128587 -0.00520452 0)
(-0.0115833 -0.00501885 0)
(-0.0103522 -0.00480452 0)
(-0.00917218 -0.00456312 0)
(-0.00804916 -0.00429657 0)
(-0.00698876 -0.00400709 0)
(-0.00599602 -0.00369726 0)
(-0.00507532 -0.00336998 0)
(-0.00423034 -0.00302857 0)
(-0.00346395 -0.00267675 0)
(-0.00277816 -0.00231868 0)
(-0.00217399 -0.00195905 0)
(-0.00165143 -0.00160315 0)
(-0.00120934 -0.00125692 0)
(-0.000845375 -0.000927146 0)
(-0.000555904 -0.000621522 0)
(-0.000335938 -0.000348866 0)
(-0.000179032 -0.000119308 0)
(-7.72378e-05 5.54724e-05 0)
(-2.09701e-05 0.000162025 0)
(1.24262e-06 0.000184737 0)
(2.68705e-06 0.000104138 0)
(-1.03574e-05 5.74097e-05 0)
(-7.95023e-05 0.000247454 0)
(-0.000243354 0.000508364 0)
(-0.000494831 0.000840798 0)
(-0.00083198 0.0012234 0)
(-0.00125552 0.00163554 0)
(-0.00176513 0.00206132 0)
(-0.0023594 0.00248847 0)
(-0.00303612 0.00290775 0)
(-0.00379229 0.00331214 0)
(-0.00462434 0.00369651 0)
(-0.00552804 0.0040572 0)
(-0.00649878 0.00439175 0)
(-0.00753159 0.00469857 0)
(-0.00862124 0.0049768 0)
(-0.00976231 0.0052261 0)
(-0.0109494 0.00544653 0)
(-0.0121769 0.00563849 0)
(-0.0134395 0.00580257 0)
(-0.0147316 0.00593946 0)
(-0.016048 0.00604997 0)
(-0.0173835 0.00613495 0)
(-0.0187328 0.00619523 0)
(-0.0200909 0.00623161 0)
(-0.0214531 0.00624489 0)
(-0.0228145 0.00623573 0)
(-0.0241703 0.00620479 0)
(-0.025516 0.00615266 0)
(-0.0268472 0.00607984 0)
(-0.0281595 0.00598672 0)
(-0.0294484 0.00587368 0)
(-0.0307097 0.00574106 0)
(-0.0319393 0.00558911 0)
(-0.0331329 0.00541807 0)
(-0.0342864 0.00522813 0)
(-0.0353959 0.00501951 0)
(-0.0364573 0.00479242 0)
(-0.0374667 0.0045471 0)
(-0.0384202 0.00428378 0)
(-0.039314 0.00400278 0)
(-0.0401446 0.00370447 0)
(-0.0409082 0.00338932 0)
(-0.0416014 0.00305784 0)
(-0.0422209 0.00271067 0)
(-0.0427635 0.00234854 0)
(-0.0432263 0.00197231 0)
(-0.0436064 0.00158297 0)
(-0.0439014 0.00118166 0)
(-0.0441089 0.00076964 0)
(-0.0442269 0.00034829 0)
(-0.0442538 -8.08482e-05 0)
(-0.0441883 -0.000516079 0)
(-0.0440293 -0.000955571 0)
(-0.0437763 -0.00139737 0)
(-0.0434291 -0.00183941 0)
(-0.042988 -0.0022795 0)
(-0.0424537 -0.00271534 0)
(-0.0418275 -0.00314454 0)
(-0.0411109 -0.00356465 0)
(-0.0403063 -0.00397316 0)
(-0.0394163 -0.00436752 0)
(-0.0384442 -0.00474518 0)
(-0.0373936 -0.00510359 0)
(-0.0362689 -0.00544024 0)
(-0.0350748 -0.00575267 0)
(-0.0338165 -0.00603851 0)
(-0.0324997 -0.0062955 0)
(-0.0311305 -0.00652153 0)
(-0.0297154 -0.00671465 0)
(-0.0282615 -0.00687308 0)
(-0.0267758 -0.00699528 0)
(-0.025266 -0.00707993 0)
(-0.0237398 -0.00712597 0)
(-0.0222052 -0.00713265 0)
(-0.0206703 -0.00709948 0)
(-0.0191431 -0.00702631 0)
(-0.017632 -0.0069133 0)
(-0.0161448 -0.00676097 0)
(-0.0146895 -0.00657018 0)
(-0.013274 -0.00634216 0)
(-0.0119055 -0.00607853 0)
(-0.0105912 -0.00578126 0)
(-0.00933769 -0.00545274 0)
(-0.00815109 -0.00509573 0)
(-0.00703687 -0.00471343 0)
(-0.00599985 -0.00430946 0)
(-0.0050441 -0.00388791 0)
(-0.00417283 -0.00345336 0)
(-0.00338834 -0.00301093 0)
(-0.00269189 -0.00256633 0)
(-0.00208371 -0.00212594 0)
(-0.00156283 -0.00169689 0)
(-0.00112711 -0.00128721 0)
(-0.000773092 -0.000905932 0)
(-0.000496016 -0.000563245 0)
(-0.000289718 -0.000270727 0)
(-0.000146579 -4.15694e-05 0)
(-5.7435e-05 0.000109208 0)
(-1.19893e-05 0.000164351 0)
(5.54895e-07 0.000102526 0)
(-1.3229e-05 0.000101464 0)
(-9.81867e-05 0.00038286 0)
(-0.000295506 0.000736139 0)
(-0.000593963 0.00116081 0)
(-0.000989049 0.00163513 0)
(-0.00148036 0.00213804 0)
(-0.00206584 0.00265292 0)
(-0.00274305 0.00316692 0)
(-0.00350891 0.00367009 0)
(-0.00435968 0.00415474 0)
(-0.00529107 0.00461521 0)
(-0.00629844 0.00504738 0)
(-0.00737669 0.00544839 0)
(-0.00852044 0.0058164 0)
(-0.00972407 0.00615029 0)
(-0.0109819 0.00644969 0)
(-0.0122882 0.00671459 0)
(-0.013637 0.00694533 0)
(-0.0150225 0.00714257 0)
(-0.0164391 0.00730709 0)
(-0.017881 0.00743975 0)
(-0.0193426 0.00754151 0)
(-0.0208186 0.00761335 0)
(-0.0223035 0.00765614 0)
(-0.023792 0.00767077 0)
(-0.0252792 0.00765807 0)
(-0.0267598 0.0076188 0)
(-0.028229 0.00755359 0)
(-0.029682 0.00746304 0)
(-0.031114 0.00734765 0)
(-0.0325202 0.00720787 0)
(-0.0338962 0.00704408 0)
(-0.0352372 0.0068566 0)
(-0.0365389 0.00664572 0)
(-0.0377968 0.00641171 0)
(-0.0390065 0.00615482 0)
(-0.0401637 0.00587534 0)
(-0.0412642 0.00557356 0)
(-0.0423037 0.00524981 0)
(-0.0432783 0.00490448 0)
(-0.0441838 0.00453806 0)
(-0.0450164 0.00415112 0)
(-0.0457725 0.00374433 0)
(-0.0464483 0.00331846 0)
(-0.0470406 0.00287443 0)
(-0.0475461 0.00241333 0)
(-0.0479617 0.00193637 0)
(-0.0482848 0.00144493 0)
(-0.048513 0.00094055 0)
(-0.048644 0.000424937 0)
(-0.0486761 -0.000100022 0)
(-0.0486078 -0.000632267 0)
(-0.0484382 -0.00116958 0)
(-0.0481665 -0.00170959 0)
(-0.0477925 -0.00224978 0)
(-0.0473166 -0.0027875 0)
(-0.0467396 -0.00331996 0)
(-0.0460627 -0.00384429 0)
(-0.0452878 -0.00435749 0)
(-0.0444171 -0.00485655 0)
(-0.0434536 -0.00533839 0)
(-0.0424007 -0.00579993 0)
(-0.0412624 -0.00623808 0)
(-0.0400433 -0.00664981 0)
(-0.0387483 -0.00703215 0)
(-0.0373832 -0.00738224 0)
(-0.035954 -0.00769736 0)
(-0.0344672 -0.00797495 0)
(-0.0329299 -0.00821266 0)
(-0.0313493 -0.00840835 0)
(-0.0297334 -0.00856014 0)
(-0.0280902 -0.00866644 0)
(-0.0264279 -0.00872599 0)
(-0.0247552 -0.00873784 0)
(-0.0230808 -0.00870144 0)
(-0.0214132 -0.00861657 0)
(-0.0197614 -0.00848345 0)
(-0.018134 -0.00830269 0)
(-0.0165395 -0.00807534 0)
(-0.0149862 -0.00780289 0)
(-0.0134823 -0.00748729 0)
(-0.0120352 -0.00713094 0)
(-0.0106521 -0.00673671 0)
(-0.00933973 -0.00630794 0)
(-0.00810397 -0.0058485 0)
(-0.00695011 -0.00536274 0)
(-0.00588261 -0.00485559 0)
(-0.00490506 -0.00433252 0)
(-0.00402009 -0.00379963 0)
(-0.00322928 -0.00326369 0)
(-0.00253313 -0.00273221 0)
(-0.00193095 -0.00221351 0)
(-0.00142087 -0.00171686 0)
(-0.000999724 -0.00125259 0)
(-0.000663059 -0.000832244 0)
(-0.000405102 -0.000468752 0)
(-0.000218684 -0.000176686 0)
(-9.51704e-05 2.75605e-05 0)
(-2.55446e-05 0.000125393 0)
(-1.57663e-06 9.40305e-05 0)
(-1.59897e-05 0.000155079 0)
(-0.000116767 0.000544184 0)
(-0.000347292 0.00100409 0)
(-0.000692468 0.00153335 0)
(-0.00114555 0.00210975 0)
(-0.00170437 0.00271235 0)
(-0.00236579 0.00332409 0)
(-0.00312598 0.00393159 0)
(-0.00398091 0.00452434 0)
(-0.00492608 0.00509429 0)
(-0.00595651 0.00563528 0)
(-0.00706694 0.00614282 0)
(-0.0082518 0.00661374 0)
(-0.00950532 0.00704599 0)
(-0.0108215 0.00743833 0)
(-0.0121942 0.00779018 0)
(-0.0136175 0.00810157 0)
(-0.015085 0.00837288 0)
(-0.0165908 0.0086047 0)
(-0.0181286 0.00879792 0)
(-0.0196927 0.00895354 0)
(-0.0212771 0.00907257 0)
(-0.0228759 0.00915607 0)
(-0.0244836 0.00920508 0)
(-0.0260946 0.00922058 0)
(-0.0277034 0.00920349 0)
(-0.0293047 0.00915468 0)
(-0.0308932 0.00907489 0)
(-0.0324638 0.00896477 0)
(-0.0340114 0.00882492 0)
(-0.035531 0.00865588 0)
(-0.0370177 0.00845807 0)
(-0.0384665 0.00823188 0)
(-0.0398727 0.00797765 0)
(-0.0412315 0.00769573 0)
(-0.0425382 0.00738643 0)
(-0.0437883 0.00705011 0)
(-0.0449771 0.0066871 0)
(-0.0461003 0.00629785 0)
(-0.0471534 0.00588284 0)
(-0.0481321 0.00544268 0)
(-0.0490324 0.00497806 0)
(-0.0498501 0.00448978 0)
(-0.0505816 0.0039788 0)
(-0.0512231 0.00344624 0)
(-0.0517713 0.00289341 0)
(-0.0522229 0.00232177 0)
(-0.0525749 0.00173296 0)
(-0.0528249 0.00112883 0)
(-0.0529704 0.000511427 0)
(-0.0530096 -0.000117001 0)
(-0.0529409 -0.000754001 0)
(-0.0527632 -0.00139694 0)
(-0.0524758 -0.002043 0)
(-0.0520784 -0.0026892 0)
(-0.0515714 -0.00333239 0)
(-0.0509555 -0.00396926 0)
(-0.0502322 -0.0045964 0)
(-0.0494031 -0.00521029 0)
(-0.048471 -0.00580734 0)
(-0.0474387 -0.00638391 0)
(-0.04631 -0.00693635 0)