/*--------------------------------*- C++ -*----------------------------------*\
| =========                 |                                                 |
| \\      /  F ield         | OpenFOAM: The Open Source CFD Toolbox           |
|  \\    /   O peration     | Version:  2512                                  |
|   \\  /    A nd           | Website:  www.openfoam.com                      |
|    \\/     M anipulation  |                                                 |
\*---------------------------------------------------------------------------*/
FoamFile
{
    version     2.0;
    format      ascii;
    arch        "LSB;label=32;scalar=64";
    class       surfaceScalarField;
    location    "0.12";
    object      phi;
}
// * * * * * * * * * * * * * * * * * * * * * * * * * * * * * * * * * * * * * //

dimensions      [0 3 -1 0 0 0 0];

oriented        oriented;

internalField   nonuniform List<scalar> 
19800
(
6.06035e-11
-6.06432e-11
1.62818e-10
-1.02235e-10
2.2755e-10
-6.47336e-11
2.28115e-10
-5.66248e-13
1.51338e-10
7.67804e-11
-5.66655e-12
1.57001e-10
-2.40469e-10
2.34806e-10
-5.48295e-10
3.07823e-10
-9.23075e-10
3.74781e-10
-1.35824e-09
4.35164e-10
-1.84713e-09
4.88886e-10
-2.38318e-09
5.36059e-10
-2.96015e-09
5.76965e-10
-3.57204e-09
6.11902e-10
-4.21322e-09
6.41182e-10
-4.87844e-09
6.65224e-10
-5.56292e-09
6.84474e-10
-6.26222e-09
6.99302e-10
-6.97227e-09
7.10049e-10
-7.68932e-09
7.1706e-10
-8.40999e-09
7.20673e-10
-9.13119e-09
7.21198e-10
-9.8501e-09
7.18914e-10
-1.05642e-08
7.14085e-10
-1.12711e-08
7.06943e-10
-1.19688e-08
6.97693e-10
-1.26553e-08
6.86512e-10
-1.33289e-08
6.73548e-10
-1.39878e-08
6.58951e-10
-1.46307e-08
6.42865e-10
-1.52561e-08
6.25387e-10
-1.58626e-08
6.0658e-10
-1.64492e-08
5.8652e-10
-1.70145e-08
5.65282e-10
-1.75574e-08
5.42924e-10
-1.80769e-08
5.19481e-10
-1.85718e-08
4.94987e-10
-1.90413e-08
4.6947e-10
-1.94842e-08
4.42948e-10
-1.98997e-08
4.15444e-10
-2.02867e-08
3.86986e-10
-2.06443e-08
3.57596e-10
-2.09716e-08
3.27289e-10
-2.12677e-08
2.96074e-10
-2.15316e-08
2.63975e-10
-2.17626e-08
2.31021e-10
-2.19599e-08
1.97235e-10
-2.21225e-08
1.62644e-10
-2.22498e-08
1.27278e-10
-2.2341e-08
9.11771e-11
-2.23954e-08
5.43881e-11
-2.24123e-08
1.69595e-11
-2.23913e-08
-2.10556e-11
-2.23317e-08
-5.95934e-11
-2.22331e-08
-9.85815e-11
-2.20951e-08
-1.37937e-10
-2.19176e-08
-1.7757e-10
-2.17002e-08
-2.17387e-10
-2.14429e-08
-2.57285e-10
-2.11458e-08
-2.97145e-10
-2.08089e-08
-3.36839e-10
-2.04327e-08
-3.76224e-10
-2.00175e-08
-4.15154e-10
-1.95641e-08
-4.53475e-10
-1.9073e-08
-4.91024e-10
-1.85454e-08
-5.27624e-10
-1.79823e-08
-5.63086e-10
-1.73851e-08
-5.97208e-10
-1.67553e-08
-6.29777e-10
-1.60948e-08
-6.60575e-10
-1.54054e-08
-6.89379e-10
-1.46894e-08
-7.15957e-10
-1.39494e-08
-7.40066e-10
-1.31879e-08
-7.61456e-10
-1.2408e-08
-7.79867e-10
-1.1613e-08
-7.95036e-10
-1.08063e-08
-8.06693e-10
-9.99174e-09
-8.1457e-10
-9.17334e-09
-8.18398e-10
-8.35543e-09
-8.17908e-10
-7.5426e-09
-8.1283e-10
-6.7397e-09
-8.02898e-10
-5.95186e-09
-7.87848e-10
-5.18444e-09
-7.67422e-10
-4.44307e-09
-7.41376e-10
-3.73359e-09
-7.09481e-10
-3.06206e-09
-6.71527e-10
-2.43473e-09
-6.27334e-10
-1.85795e-09
-5.76771e-10
-1.33819e-09
-5.1977e-10
-8.81833e-10
-4.56356e-10
-4.95122e-10
-3.86709e-10
-1.83845e-10
-3.11272e-10
4.70907e-11
-2.30933e-10
1.94458e-10
-1.4737e-10
2.58098e-10
-6.36405e-11
2.43451e-10
1.46491e-11
1.66425e-10
7.70252e-11
6.27165e-11
1.03706e-10
6.27152e-11
8.58452e-11
-1.46508e-10
1.85731e-10
-2.0207e-10
1.95309e-10
-7.43267e-11
5.09925e-11
1.43757e-10
-2.7734e-10
4.05112e-10
-8.01181e-10
6.80847e-10
-1.52024e-09
9.53868e-10
-2.42663e-09
1.21422e-09
-3.50817e-09
1.45633e-09
-4.75027e-09
1.67727e-09
-6.13713e-09
1.87574e-09
-7.65258e-09
2.0515e-09
-9.28061e-09
2.20499e-09
-1.10057e-08
2.33699e-09
-1.2813e-08
2.4485e-09
-1.46886e-08
2.54077e-09
-1.66192e-08
2.61511e-09
-1.85927e-08
2.67279e-09
-2.05977e-08
2.71508e-09
-2.26238e-08
2.7432e-09
-2.46615e-08
2.75835e-09
-2.6702e-08
2.76162e-09
-2.87371e-08
2.75403e-09
-3.07595e-08
2.73655e-09
-3.27626e-08
2.71004e-09
-3.47402e-08
2.67527e-09
-3.66866e-08
2.63291e-09
-3.85966e-08
2.58358e-09
-4.04655e-08
2.52783e-09
-4.22888e-08
2.46615e-09
-4.40623e-08
2.39894e-09
-4.57823e-08
2.32655e-09
-4.7445e-08
2.24925e-09
-4.9047e-08
2.16732e-09
-5.05851e-08
2.08097e-09
-5.2056e-08
1.99039e-09
-5.34567e-08
1.89572e-09
-5.47844e-08
1.7971e-09
-5.60361e-08
1.69462e-09
-5.7209e-08
1.58838e-09
-5.83005e-08
1.47848e-09
-5.93079e-08
1.36501e-09
-6.02286e-08
1.24802e-09
-6.10602e-08
1.12762e-09
-6.18001e-08
1.00388e-09
-6.2446e-08
8.76913e-10
-6.29956e-08
7.46819e-10
-6.34466e-08
6.13715e-10
-6.37971e-08
4.77738e-10
-6.40449e-08
3.39042e-10
-6.41883e-08
1.97798e-10
-6.42256e-08
5.42058e-11
-6.41551e-08
-9.15123e-11
-6.39756e-08
-2.39104e-10
-6.36859e-08
-3.88289e-10
-6.32851e-08
-5.38758e-10
-6.27725e-08
-6.90171e-10
-6.21478e-08
-8.42153e-10
-6.14107e-08
-9.943e-10
-6.05617e-08
-1.14617e-09
-5.96013e-08
-1.29726e-09
-5.85304e-08
-1.44707e-09
-5.73506e-08
-1.59504e-09
-5.60635e-08
-1.74057e-09
-5.46714e-08
-1.88303e-09
-5.31773e-08
-2.02175e-09
-5.15844e-08
-2.15603e-09
-4.98965e-08
-2.28509e-09
-4.81181e-08
-2.40818e-09
-4.62542e-08
-2.52446e-09
-4.43105e-08
-2.63308e-09
-4.22933e-08
-2.73316e-09
-4.02096e-08
-2.8238e-09
-3.8067e-08
-2.90405e-09
-3.58739e-08
-2.97295e-09
-3.36394e-08
-3.02953e-09
-3.13733e-08
-3.0728e-09
-2.90861e-08
-3.10177e-09
-2.67891e-08
-3.11542e-09
-2.44942e-08
-3.11277e-09
-2.22142e-08
-3.09285e-09
-1.99624e-08
-3.05468e-09
-1.77529e-08
-2.99735e-09
-1.56004e-08
-2.91997e-09
-1.352e-08
-2.82173e-09
-1.15276e-08
-2.70189e-09
-9.63932e-09
-2.55985e-09
-7.8715e-09
-2.39515e-09
-6.24067e-09
-2.2076e-09
-4.76316e-09
-1.99729e-09
-3.4547e-09
-1.76481e-09
-2.32993e-09
-1.51148e-09
-1.40148e-09
-1.23972e-09
-6.7877e-10
-9.53652e-10
-1.65965e-10
-6.60181e-10
1.4105e-10
-3.70654e-10
2.59346e-10
-1.0365e-10
2.25413e-10
1.1095e-10
1.03482e-10
2.25633e-10
1.66197e-10
6.15369e-11
-2.08047e-10
6.30834e-11
-2.03634e-10
-9.58982e-11
8.46604e-11
-4.84269e-10
5.32121e-10
-1.1402e-09
1.06104e-09
-2.08046e-09
1.62111e-09
-3.30661e-09
2.18002e-09
-4.80996e-09
2.71756e-09
-6.57507e-09
3.22143e-09
-8.58236e-09
3.68456e-09
-1.08099e-08
4.10329e-09
-1.32346e-08
4.47624e-09
-1.58332e-08
4.80358e-09
-1.85826e-08
5.08641e-09
-2.14607e-08
5.32652e-09
-2.4446e-08
5.52613e-09
-2.75186e-08
5.68765e-09
-3.06594e-08
5.81363e-09
-3.38509e-08
5.90659e-09
-3.70767e-08
5.96903e-09
-4.03217e-08
6.00336e-09
-4.3572e-08
6.01187e-09
-4.68146e-08
5.9967e-09
-5.00379e-08
5.95984e-09
-5.3231e-08
5.90313e-09
-5.6384e-08
5.82822e-09
-5.94876e-08
5.73657e-09
-6.25336e-08
5.62951e-09
-6.5514e-08
5.50824e-09
-6.84216e-08
5.37381e-09
-7.12498e-08
5.2271e-09
-7.39921e-08
5.0689e-09
-7.66427e-08
4.89986e-09
-7.9196e-08
4.72057e-09
-8.16466e-08
4.53153e-09
-8.39893e-08
4.33314e-09
-8.62193e-08
4.12575e-09
-8.83319e-08
3.90968e-09
-9.03225e-08
3.68518e-09
-9.21866e-08
3.45249e-09
-9.39199e-08
3.21183e-09
-9.55183e-08
2.96338e-09
-9.69776e-08
2.70735e-09
-9.8294e-08
2.44393e-09
-9.94634e-08
2.17334e-09
-1.00482e-07
1.89578e-09
-1.01347e-07
1.61153e-09
-1.02054e-07
1.32085e-09
-1.026e-07
1.02405e-09
-1.02983e-07
7.2149e-10
-1.03199e-07
4.13549e-10
-1.03245e-07
1.00669e-10
-1.0312e-07
-2.16652e-10
-1.02821e-07
-5.3786e-10
-1.02347e-07
-8.62337e-10
-1.01697e-07
-1.1894e-09
-1.00868e-07
-1.51832e-09
-9.98622e-08
-1.84827e-09
-9.86781e-08
-2.17838e-09
-9.73166e-08
-2.50766e-09
-9.57788e-08
-2.83509e-09
-9.40664e-08
-3.15952e-09
-9.21817e-08
-3.47977e-09
-9.01277e-08
-3.79454e-09
-8.79082e-08
-4.10249e-09
-8.55278e-08
-4.40215e-09
-8.29918e-08
-4.69201e-09
-8.03065e-08
-4.97046e-09
-7.74789e-08
-5.2358e-09
-7.4517e-08
-5.48629e-09
-7.143e-08
-5.72009e-09
-6.82279e-08
-5.93532e-09
-6.49216e-08
-6.13003e-09
-6.15235e-08
-6.30222e-09
-5.80466e-08
-6.44985e-09
-5.45052e-08
-6.57084e-09
-5.09149e-08
-6.6631e-09
-4.72922e-08
-6.72451e-09
-4.36546e-08
-6.75297e-09
-4.0021e-08
-6.74641e-09
-3.64111e-08
-6.70278e-09
-3.28457e-08
-6.62011e-09
-2.93465e-08
-6.49652e-09
-2.59362e-08
-6.33026e-09
-2.26382e-08
-6.11975e-09
-1.94764e-08
-5.86364e-09
-1.64754e-08
-5.5609e-09
-1.36596e-08
-5.21091e-09
-1.10536e-08
-4.81362e-09
-8.68108e-09
-4.3698e-09
-6.56456e-09
-3.88133e-09
-4.72431e-09
-3.35173e-09
-3.17714e-09
-2.78689e-09
-1.93459e-09
-2.19621e-09
-1.00043e-09
-1.59433e-09
-3.67205e-10
-1.00388e-09
-1.14816e-11
-4.5938e-10
1.12094e-10
-1.26269e-11
7.71006e-11
2.60624e-10
2.43297e-10
-4.92808e-13
-2.07554e-10
-1.48956e-10
-5.51629e-11
-5.38982e-10
4.74682e-10
-1.23321e-09
1.22636e-09
-2.26858e-09
2.09641e-09
-3.66183e-09
3.01437e-09
-5.41431e-09
3.93251e-09
-7.51614e-09
4.8194e-09
-9.94959e-09
5.65487e-09
-1.26916e-08
6.42658e-09
-1.57159e-08
7.12756e-09
-1.89943e-08
7.75465e-09
-2.2498e-08
8.30725e-09
-2.61981e-08
8.78655e-09
-3.00665e-08
9.19496e-09
-3.40761e-08
9.53565e-09
-3.82007e-08
9.8123e-09
-4.24159e-08
1.00289e-08
-4.66987e-08
1.01894e-08
-5.10275e-08
1.02978e-08
-5.53823e-08
1.03582e-08
-5.97446e-08
1.03742e-08
-6.40972e-08
1.03493e-08
-6.84243e-08
1.0287e-08
-7.27114e-08
1.01902e-08
-7.69449e-08
1.00617e-08
-8.11125e-08
9.90416e-09
-8.52027e-08
9.71973e-09
-8.92049e-08
9.51047e-09
-9.31092e-08
9.27816e-09
-9.69065e-08
9.02437e-09
-1.00588e-07
8.75047e-09
-1.04146e-07
8.45764e-09
-1.07572e-07
8.1469e-09
-1.1086e-07
7.81912e-09
-1.14002e-07
7.47506e-09
-1.16991e-07
7.11536e-09
-1.19822e-07
6.74057e-09
-1.22488e-07
6.35117e-09
-1.24983e-07
5.94762e-09
-1.27302e-07
5.5303e-09
-1.29438e-07
5.0996e-09
-1.31387e-07
4.65587e-09
-1.33142e-07
4.19949e-09
-1.347e-07
3.73083e-09
-1.36054e-07
3.25032e-09
-1.37201e-07
2.75841e-09
-1.38136e-07
2.25561e-09
-1.38854e-07
1.74245e-09
-1.39352e-07
1.21956e-09
-1.39626e-07
6.87651e-10
-1.39673e-07
1.47486e-10
-1.3949e-07
-4.00063e-10
-1.39074e-07
-9.54032e-10
-1.38423e-07
-1.51335e-09
-1.37535e-07
-2.07685e-09
-1.3641e-07
-2.64324e-09
-1.35047e-07
-3.21111e-09
-1.33447e-07
-3.77894e-09
-1.31609e-07
-4.34507e-09
-1.29537e-07
-4.9077e-09
-1.27231e-07
-5.46491e-09
-1.24697e-07
-6.01464e-09
-1.21936e-07
-6.5547e-09
-1.18956e-07
-7.08276e-09
-1.15762e-07
-7.59634e-09
-1.12361e-07
-8.09284e-09
-1.08762e-07
-8.56952e-09
-1.04974e-07
-9.0235e-09
-1.01009e-07
-9.45181e-09
-9.68776e-08
-9.85134e-09
-9.2594e-08
-1.02189e-08
-8.81729e-08
-1.05511e-08
-8.36305e-08
-1.08447e-08
-7.89843e-08
-1.10961e-08
-7.42532e-08
-1.13019e-08
-6.94578e-08
-1.14585e-08
-6.46199e-08
-1.15624e-08
-5.97627e-08
-1.16102e-08
-5.49108e-08
-1.15982e-08
-5.00903e-08
-1.15233e-08
-4.53283e-08
-1.13821e-08
-4.06532e-08
-1.11716e-08
-3.60943e-08
-1.08891e-08
-3.16819e-08
-1.05322e-08
-2.74468e-08
-1.00988e-08
-2.34201e-08
-9.58754e-09
-1.96331e-08
-8.99792e-09
-1.61163e-08
-8.33039e-09
-1.28993e-08
-7.58688e-09
-1.00093e-08
-6.77128e-09
-7.4708e-09
-5.89027e-09
-5.30335e-09
-4.95434e-09
-3.52006e-09
-3.9795e-09
-2.12487e-09
-2.98952e-09
-1.10939e-09
-2.01937e-09
-4.48814e-10
-1.11996e-09
-9.75717e-11
-3.63867e-10
1.61569e-11
1.46895e-10
2.59453e-10
-7.52099e-11
-1.32341e-10
-4.06235e-10
2.75862e-10
-1.06598e-09
1.13444e-09
-2.1048e-09
2.26517e-09
-3.55292e-09
3.54454e-09
-5.42323e-09
4.88468e-09
-7.71454e-09
6.22381e-09
-1.04148e-08
7.51963e-09
-1.35037e-08
8.74385e-09
-1.69555e-08
9.87839e-09
-2.07405e-08
1.09125e-08
-2.48265e-08
1.18407e-08
-2.91804e-08
1.26612e-08
-3.37689e-08
1.33751e-08
-3.85591e-08
1.39851e-08
-4.35188e-08
1.44954e-08
-4.86174e-08
1.49109e-08
-5.38256e-08
1.5237e-08
-5.91157e-08
1.54794e-08
-6.44617e-08
1.56438e-08
-6.98393e-08
1.57358e-08
-7.5226e-08
1.57609e-08
-8.06008e-08
1.57241e-08
-8.59442e-08
1.56304e-08
-9.12383e-08
1.54843e-08
-9.64664e-08
1.52898e-08
-1.01613e-07
1.50509e-08
-1.06664e-07
1.47708e-08
-1.11606e-07
1.44527e-08
-1.16427e-07
1.40992e-08
-1.21116e-07
1.37127e-08
-1.2566e-07
1.32953e-08
-1.30052e-07
1.28489e-08
-1.3428e-07
1.2375e-08
-1.38336e-07
1.18749e-08
-1.4221e-07
1.135e-08
-1.45896e-07
1.08011e-08
-1.49385e-07
1.02291e-08
-1.52669e-07
9.63497e-09
-1.5574e-07
9.01926e-09
-1.58593e-07
8.38266e-09
-1.61219e-07
7.72577e-09
-1.63612e-07
7.04919e-09
-1.65766e-07
6.35351e-09
-1.67675e-07
5.63937e-09
-1.69332e-07
4.90742e-09
-1.70732e-07
4.15839e-09
-1.71869e-07
3.39307e-09
-1.72739e-07
2.61232e-09
-1.73337e-07
1.8171e-09
-1.73657e-07
1.00851e-09
-1.73698e-07
1.87746e-10
-1.73454e-07
-6.4386e-10
-1.72923e-07
-1.48483e-09
-1.72103e-07
-2.33353e-09
-1.70992e-07
-3.18819e-09
-1.69588e-07
-4.04683e-09
-1.67892e-07
-4.90732e-09
-1.65903e-07
-5.76735e-09
-1.63624e-07
-6.6244e-09
-1.61056e-07
-7.47577e-09
-1.58202e-07
-8.31855e-09
-1.55067e-07
-9.14964e-09
-1.51656e-07
-9.96573e-09
-1.47976e-07
-1.07633e-08
-1.44033e-07
-1.15387e-08
-1.39838e-07
-1.22879e-08
-1.35401e-07
-1.30068e-08
-1.30733e-07
-1.36912e-08
-1.25849e-07
-1.43366e-08
-1.20762e-07
-1.49383e-08
-1.15489e-07
-1.54914e-08
-1.10049e-07
-1.59912e-08
-1.04461e-07
-1.64325e-08
-9.8747e-08
-1.68102e-08
-9.29297e-08
-1.71192e-08
-8.70341e-08
-1.73541e-08
-8.10869e-08
-1.75097e-08
-7.5116e-08
-1.7581e-08
-6.91514e-08
-1.75628e-08
-6.32244e-08
-1.74504e-08
-5.73675e-08
-1.72389e-08
-5.16149e-08
-1.69243e-08
-4.60015e-08
-1.65025e-08
-4.05634e-08
-1.59703e-08
-3.53369e-08
-1.53253e-08
-3.03587e-08
-1.45657e-08
-2.56653e-08
-1.36913e-08
-2.12922e-08
-1.27035e-08
-1.72731e-08
-1.16059e-08
-1.36395e-08
-1.04049e-08
-1.04187e-08
-9.11109e-09
-7.63278e-09
-7.74026e-09
-5.29661e-09
-6.31566e-09
-3.41555e-09
-4.87058e-09
-1.98274e-09
-3.45218e-09
-9.76172e-10
-2.12652e-09
-3.55595e-10
-9.84442e-10
-5.93862e-11
-1.49316e-10
2.00068e-10
-1.54446e-10
2.21037e-11
-6.82131e-10
8.03553e-10
-1.63098e-09
2.08329e-09
-3.03513e-09
3.66933e-09
-4.91429e-09
5.4237e-09
-7.27452e-09
7.2449e-09
-1.011e-08
9.05929e-09
-1.34052e-08
1.08148e-08
-1.7137e-08
1.24756e-08
-2.12765e-08
1.40179e-08
-2.5791e-08
1.5427e-08
-3.06453e-08
1.6695e-08
-3.58027e-08
1.78186e-08
-4.12261e-08
1.87985e-08
-4.68787e-08
1.96377e-08
-5.27246e-08
2.03413e-08
-5.8729e-08
2.09153e-08
-6.48586e-08
2.13667e-08
-7.10819e-08
2.17027e-08
-7.73691e-08
2.1931e-08
-8.36922e-08
2.20589e-08
-9.0025e-08
2.20937e-08
-9.63433e-08
2.20424e-08
-1.02624e-07
2.19114e-08
-1.08847e-07
2.1707e-08
-1.14992e-07
2.14347e-08
-1.21041e-07
2.10999e-08
-1.26977e-07
2.0707e-08
-1.32785e-07
2.02605e-08
-1.3845e-07
1.97641e-08
-1.43958e-07
1.9221e-08
-1.49297e-07
1.86343e-08
-1.54455e-07
1.80065e-08
-1.5942e-07
1.73399e-08
-1.64182e-07
1.66364e-08
-1.68729e-07
1.58978e-08
-1.73054e-07
1.51254e-08
-1.77145e-07
1.43206e-08
-1.80995e-07
1.34845e-08
-1.84594e-07
1.26183e-08
-1.87934e-07
1.17228e-08
-1.91007e-07
1.07989e-08
-1.93805e-07
9.84763e-09
-1.96322e-07
8.86974e-09
-1.98548e-07
7.86618e-09
-2.00479e-07
6.83794e-09
-2.02107e-07
5.78605e-09
-2.03425e-07
4.71167e-09
-2.04429e-07
3.61604e-09
-2.05112e-07
2.50056e-09
-2.05471e-07
1.36675e-09
-2.05499e-07
2.16334e-10
-2.05194e-07
-9.48799e-10
-2.04553e-07
-2.12657e-09
-2.03571e-07
-3.31468e-09
-2.02249e-07
-4.51062e-09
-2.00584e-07
-5.71165e-09
-1.98577e-07
-6.91478e-09
-1.96227e-07
-8.11676e-09
-1.93538e-07
-9.31408e-09
-1.9051e-07
-1.0503e-08
-1.8715e-07
-1.16794e-08
-1.8346e-07
-1.28391e-08
-1.79449e-07
-1.39773e-08
-1.75123e-07
-1.50893e-08
-1.70492e-07
-1.61698e-08
-1.65566e-07
-1.72135e-08
-1.60358e-07
-1.82146e-08
-1.54882e-07
-1.91672e-08
-1.49154e-07
-2.00651e-08
-1.4319e-07
-2.09019e-08
-1.3701e-07
-2.16709e-08
-1.30636e-07
-2.23654e-08
-1.24091e-07
-2.29783e-08
-1.17398e-07
-2.35028e-08
-1.10586e-07
-2.39316e-08
-1.03682e-07
-2.42575e-08
-9.67183e-08
-2.44736e-08
-8.97265e-08
-2.45728e-08
-8.2741e-08
-2.45483e-08
-7.57978e-08
-2.43936e-08
-6.89343e-08
-2.41025e-08
-6.21892e-08
-2.36694e-08
-5.56024e-08
-2.30893e-08
-4.92146e-08
-2.23581e-08
-4.3067e-08
-2.14729e-08
-3.72007e-08
-2.04319e-08
-3.16565e-08
-1.92355e-08
-2.64739e-08
-1.78862e-08
-2.16903e-08
-1.63895e-08
-1.73401e-08
-1.47551e-08
-1.34537e-08
-1.29975e-08
-1.00555e-08
-1.11384e-08
-7.16304e-09
-9.20816e-09
-4.78424e-09
-7.24938e-09
-2.91611e-09
-5.32032e-09
-1.54246e-09
-3.50017e-09
-6.32383e-10
-1.89452e-09
-1.3916e-10
-6.42539e-10
6.09098e-11
-2.33136e-10
2.55246e-10
-9.60318e-10
1.53073e-09
-2.20424e-09
3.32721e-09
-3.98098e-09
5.44608e-09
-6.29749e-09
7.74022e-09
-9.15094e-09
1.00984e-08
-1.25292e-08
1.24375e-08
-1.6412e-08
1.46977e-08
-2.07726e-08
1.68362e-08
-2.55789e-08
1.88242e-08
-3.07951e-08
2.06433e-08
-3.6383e-08
2.22829e-08
-4.2303e-08
2.37385e-08
-4.85147e-08
2.50102e-08
-5.49782e-08
2.61012e-08
-6.16542e-08
2.70173e-08
-6.85047e-08
2.77657e-08
-7.54929e-08
2.83549e-08
-8.25841e-08
2.87939e-08
-8.97451e-08
2.90921e-08
-9.69449e-08
2.92587e-08
-1.04154e-07
2.93029e-08
-1.11345e-07
2.92337e-08
-1.18494e-07
2.90594e-08
-1.25574e-07
2.87879e-08
-1.32566e-07
2.84265e-08
-1.39448e-07
2.79818e-08
-1.46201e-07
2.74602e-08
-1.52808e-07
2.6867e-08
-1.59251e-07
2.62072e-08
-1.65515e-07
2.54852e-08
-1.71586e-07
2.4705e-08
-1.77449e-07
2.387e-08
-1.83092e-07
2.29832e-08
-1.88503e-07
2.20471e-08
-1.9367e-07
2.10642e-08
-1.98581e-07
2.00364e-08
-2.03226e-07
1.89656e-08
-2.07594e-07
1.78532e-08
-2.11677e-07
1.67008e-08
-2.15464e-07
1.55096e-08
-2.18946e-07
1.42809e-08
-2.22114e-07
1.3016e-08
-2.2496e-07
1.17161e-08
-2.27477e-07
1.03825e-08
-2.29655e-07
9.01643e-09
-2.31489e-07
7.61941e-09
-2.3297e-07
6.19297e-09
-2.34093e-07
4.73881e-09
-2.34851e-07
3.25882e-09
-2.35239e-07
1.75506e-09
-2.35253e-07
2.29825e-10
-2.34887e-07
-1.31436e-09
-2.34139e-07
-2.87472e-09
-2.33005e-07
-4.4482e-09
-2.31485e-07
-6.03147e-09
-2.29575e-07
-7.62089e-09
-2.27278e-07
-9.2125e-09
-2.24592e-07
-1.0802e-08
-2.21522e-07
-1.23848e-08
-2.18069e-07
-1.39558e-08
-2.14238e-07
-1.55099e-08
-2.10036e-07
-1.70412e-08
-2.0547e-07
-1.85437e-08
-2.00548e-07
-2.0011e-08
-1.95282e-07
-2.14363e-08
-1.89683e-07
-2.28126e-08
-1.83765e-07
-2.41322e-08
-1.77545e-07
-2.53875e-08
-1.7104e-07
-2.65702e-08
-1.6427e-07
-2.76721e-08
-1.57256e-07
-2.86845e-08
-1.50023e-07
-2.95985e-08
-1.42596e-07
-3.0405e-08
-1.35004e-07
-3.1095e-08
-1.27276e-07
-3.16591e-08
-1.19446e-07
-3.20882e-08
-1.11546e-07
-3.23732e-08
-1.03614e-07
-3.25049e-08
-9.56875e-08
-3.24749e-08
-8.78064e-08
-3.22746e-08
-8.00123e-08
-3.18966e-08
-7.23481e-08
-3.13336e-08
-6.48577e-08
-3.05797e-08
-5.75858e-08
-2.963e-08
-5.05775e-08
-2.84811e-08
-4.38779e-08
-2.71315e-08
-3.75313e-08
-2.55822e-08
-3.15804e-08
-2.38371e-08
-2.60659e-08
-2.1904e-08
-2.10252e-08
-1.97958e-08
-1.64914e-08
-1.75313e-08
-1.24919e-08
-1.51378e-08
-9.04732e-09
-1.26528e-08
-6.16974e-09
-1.0127e-08
-3.86166e-09
-7.6284e-09
-2.11489e-09
-5.24693e-09
-9.10191e-10
-3.09922e-09
-2.17799e-10
-1.33493e-09
-1.56888e-10
-3.08767e-10
5.64013e-10
-1.2316e-09
2.45358e-09
-2.76755e-09
4.86316e-09
-4.91447e-09
7.593e-09
-7.66558e-09
1.04913e-08
-1.10078e-08
1.34406e-08
-1.49216e-08
1.63513e-08
-1.93808e-08
1.91569e-08
-2.43543e-08
2.18097e-08
-2.98064e-08
2.42763e-08
-3.56981e-08
2.6535e-08
-4.19883e-08
2.8573e-08
-4.86343e-08
3.03845e-08
-5.55932e-08
3.19691e-08
-6.28221e-08
3.33302e-08
-7.0279e-08
3.44742e-08
-7.79229e-08
3.54096e-08
-8.57144e-08
3.61464e-08
-9.36156e-08
3.66952e-08
-1.01591e-07
3.70673e-08
-1.09606e-07
3.7274e-08
-1.1763e-07
3.73264e-08
-1.25631e-07
3.72354e-08
-1.33583e-07
3.70114e-08
-1.41459e-07
3.66639e-08
-1.49235e-07
3.62022e-08
-1.56888e-07
3.56346e-08
-1.64396e-07
3.49687e-08
-1.71741e-07
3.42115e-08
-1.78903e-07
3.33692e-08
-1.85865e-07
3.24474e-08
-1.92611e-07
3.14511e-08
-1.99126e-07
3.03847e-08
-2.05395e-07
2.9252e-08
-2.11404e-07
2.80563e-08
-2.1714e-07
2.68007e-08
-2.22592e-07
2.54878e-08
-2.27746e-07
2.412e-08
-2.32592e-07
2.26992e-08
-2.37119e-07
2.12275e-08
-2.41316e-07
1.97065e-08
-2.45173e-07
1.8138e-08
-2.4868e-07
1.65235e-08
-2.51829e-07
1.48647e-08
-2.5461e-07
1.31633e-08
-2.57014e-07
1.1421e-08
-2.59035e-07
9.63972e-09
-2.60663e-07
7.82146e-09
-2.61893e-07
5.96844e-09
-2.62717e-07
4.08309e-09
-2.6313e-07
2.16808e-09
-2.63126e-07
2.26354e-10
-2.62702e-07
-1.73886e-09
-2.61853e-07
-3.72401e-09
-2.60576e-07
-5.72519e-09
-2.58869e-07
-7.73817e-09
-2.56732e-07
-9.7583e-09
-2.54164e-07
-1.17805e-08
-2.51166e-07
-1.37995e-08
-2.47742e-07
-1.58092e-08
-2.43894e-07
-1.78034e-08
-2.39629e-07
-1.97754e-08
-2.34952e-07
-2.1718e-08
-2.29872e-07
-2.36234e-08
-2.24399e-07
-2.54836e-08
-2.18546e-07
-2.72901e-08
-2.12324e-07
-2.90338e-08
-2.05751e-07
-3.07053e-08
-1.98844e-07
-3.22949e-08
-1.91622e-07
-3.37923e-08
-1.84107e-07
-3.51869e-08
-1.76323e-07
-3.6468e-08
-1.68297e-07
-3.76245e-08
-1.60057e-07
-3.86449e-08
-1.51634e-07
-3.9518e-08
-1.43061e-07
-4.02322e-08
-1.34374e-07
-4.0776e-08
-1.25609e-07
-4.11381e-08
-1.16806e-07
-4.13075e-08
-1.08008e-07
-4.12735e-08
-9.92563e-08
-4.10259e-08
-9.05973e-08
-4.05555e-08
-8.20772e-08
-3.98538e-08
-7.37432e-08
-3.89137e-08
-6.56438e-08
-3.77295e-08
-5.78272e-08
-3.62976e-08
-5.03419e-08
-3.46169e-08
-4.32352e-08
-3.26889e-08
-3.6553e-08
-3.05193e-08
-3.0339e-08
-2.81181e-08
-2.46333e-08
-2.55014e-08
-1.94722e-08
-2.26925e-08
-1.48864e-08
-1.97236e-08
-1.09004e-08
-1.66388e-08
-7.53138e-09
-1.34959e-08
-4.78869e-09
-1.03711e-08
-2.67338e-09
-7.36224e-09
-1.17887e-09
-4.59373e-09
-2.92584e-10
-2.22121e-09
-4.49475e-10
-3.80119e-10
9.44137e-10
-1.49096e-09
3.56443e-09
-3.31023e-09
6.68243e-09
-5.81838e-09
1.01012e-08
-8.99476e-09
1.36677e-08
-1.28155e-08
1.72614e-08
-1.72526e-08
2.07884e-08
-2.22738e-08
2.4178e-08
-2.78425e-08
2.73784e-08
-3.3919e-08
3.03528e-08
-4.04609e-08
3.30769e-08
-4.7424e-08
3.55361e-08
-5.47629e-08
3.77234e-08
-6.2432e-08
3.96382e-08
-7.03859e-08
4.12841e-08
-7.85799e-08
4.26682e-08
-8.69707e-08
4.38004e-08
-9.55163e-08
4.46919e-08
-1.04176e-07
4.53553e-08
-1.12913e-07
4.58038e-08
-1.21689e-07
4.60505e-08
-1.30472e-07
4.61088e-08
-1.39228e-07
4.59915e-08
-1.47927e-07
4.57109e-08
-1.56542e-07
4.52787e-08
-1.65046e-07
4.47058e-08
-1.73414e-07
4.40024e-08
-1.81623e-07
4.31776e-08
-1.89651e-07
4.224e-08
-1.97479e-07
4.11971e-08
-2.05087e-07
4.00558e-08
-2.12459e-07
3.88222e-08
-2.19576e-07
3.75018e-08
-2.26423e-07
3.60991e-08
-2.32985e-07
3.46186e-08
-2.39248e-07
3.30639e-08
-2.45199e-07
3.14382e-08
-2.50823e-07
2.97447e-08
-2.5611e-07
2.79858e-08
-2.61046e-07
2.6164e-08
-2.65621e-07
2.42815e-08
-2.69824e-07
2.23405e-08
-2.73643e-07
2.0343e-08
-2.7707e-07
1.82912e-08
-2.80094e-07
1.61871e-08
-2.82706e-07
1.4033e-08
-2.84897e-07
1.18312e-08
-2.8666e-07
9.58438e-09
-2.87987e-07
7.29519e-09
-2.88871e-07
4.9667e-09
-2.89305e-07
2.60226e-09
-2.89284e-07
2.05522e-10
-2.88803e-07
-2.21951e-09
-2.87859e-07
-4.66842e-09
-2.86448e-07
-7.13642e-09
-2.84568e-07
-9.61824e-09
-2.82218e-07
-1.21082e-08
-2.79398e-07
-1.46e-08
-2.76111e-07
-1.7087e-08
-2.72358e-07
-1.9562e-08
-2.68144e-07
-2.20173e-08
-2.63475e-07
-2.44445e-08
-2.58358e-07
-2.68348e-08
-2.52803e-07
-2.91789e-08
-2.46819e-07
-3.14668e-08
-2.40422e-07
-3.3688e-08
-2.33624e-07
-3.58315e-08
-2.26443e-07
-3.78858e-08
-2.18899e-07
-3.9839e-08
-2.11013e-07
-4.16786e-08
-2.02808e-07
-4.33917e-08
-1.94311e-07
-4.49652e-08
-1.8555e-07
-4.63856e-08
-1.76556e-07
-4.76391e-08
-1.67362e-07
-4.87119e-08
-1.58004e-07
-4.95901e-08
-1.4852e-07
-5.02599e-08
-1.3895e-07
-5.07077e-08
-1.29338e-07
-5.09202e-08
-1.19726e-07
-5.08847e-08
-1.10163e-07
-5.05893e-08
-1.00696e-07
-5.00228e-08
-9.13738e-08
-4.91756e-08
-8.22481e-08
-4.80393e-08
-7.33698e-08
-4.66078e-08
-6.47904e-08
-4.48771e-08
-5.6561e-08
-4.28462e-08
-4.87321e-08
-4.05178e-08
-4.13523e-08
-3.7899e-08
-3.44682e-08
-3.50023e-08
-2.81229e-08
-3.18466e-08
-2.23561e-08
-2.84593e-08
-1.72021e-08
-2.48776e-08
-1.26902e-08
-2.11507e-08
-8.84344e-09
-1.73427e-08
-5.6785e-09
-1.3536e-08
-3.20629e-09
-9.83445e-09
-1.43298e-09
-6.36705e-09
-3.62259e-10
-3.29193e-09
-8.11736e-10
-4.46729e-10
1.39087e-09
-1.73593e-09
4.85363e-09
-3.82648e-09
8.77299e-09
-6.68273e-09
1.29574e-08
-1.02706e-08
1.72556e-08
-1.45553e-08
2.15461e-08
-1.95002e-08
2.57333e-08
-2.50659e-08
2.97437e-08
-3.12104e-08
3.3523e-08
-3.78895e-08
3.70319e-08
-4.5057e-08
4.02444e-08
-5.26654e-08
4.31445e-08
-6.06666e-08
4.57246e-08
-6.90122e-08
4.79839e-08
-7.76546e-08
4.99264e-08
-8.65467e-08
5.15603e-08
-9.56429e-08
5.28965e-08
-1.04899e-07
5.3948e-08
-1.14273e-07
5.4729e-08
-1.23723e-07
5.52546e-08
-1.33213e-07
5.55402e-08
-1.42705e-07
5.56011e-08
-1.52166e-07
5.54523e-08
-1.61563e-07
5.5108e-08
-1.70867e-07
5.45821e-08
-1.80048e-07
5.38873e-08
-1.89082e-07
5.30356e-08
-1.97942e-07
5.20379e-08
-2.06606e-07
5.09042e-08
-2.15053e-07
4.96436e-08
-2.23261e-07
4.82643e-08
-2.31212e-07
4.67735e-08
-2.38888e-07
4.51778e-08
-2.46272e-07
4.34828e-08
-2.53347e-07
4.16938e-08
-2.60099e-07
3.98153e-08
-2.66512e-07
3.78512e-08
-2.72572e-07
3.58052e-08
-2.78267e-07
3.36805e-08
-2.83583e-07
3.148e-08
-2.88508e-07
2.92067e-08
-2.9303e-07
2.6863e-08
-2.97139e-07
2.44515e-08
-3.00823e-07
2.19749e-08
-3.04071e-07
1.94358e-08
-3.06875e-07
1.68369e-08
-3.09225e-07
1.41811e-08
-3.11112e-07
1.14715e-08
-3.12529e-07
8.7116e-09
-3.13467e-07
5.90499e-09
-3.13921e-07
3.05575e-09
-3.13883e-07
1.68302e-10
-3.1335e-07
-2.75249e-09
-3.12317e-07
-5.70131e-09
-3.10782e-07
-8.67236e-09
-3.0874e-07
-1.16593e-08
-3.06193e-07
-1.46553e-08
-3.03141e-07
-1.76528e-08
-2.99584e-07
-2.06438e-08
-2.95526e-07
-2.36197e-08
-2.90972e-07
-2.65712e-08
-2.85928e-07
-2.94883e-08
-2.80403e-07
-3.23604e-08
-2.74405e-07
-3.51763e-08
-2.67948e-07
-3.79242e-08
-2.61045e-07
-4.05914e-08
-2.53711e-07
-4.31649e-08
-2.45966e-07
-4.5631e-08
-2.3783e-07
-4.79752e-08
-2.29326e-07
-5.01829e-08
-2.20479e-07
-5.22387e-08
-2.11317e-07
-5.41269e-08
-2.01871e-07
-5.58316e-08
-1.92174e-07
-5.73363e-08
-1.82261e-07
-5.86249e-08
-1.7217e-07
-5.96808e-08
-1.61942e-07
-6.04877e-08
-1.5162e-07
-6.10298e-08
-1.41249e-07
-6.12914e-08
-1.30876e-07
-6.12578e-08
-1.2055e-07
-6.0915e-08
-1.10323e-07
-6.02503e-08
-1.00246e-07
-5.92525e-08
-9.03729e-08
-5.79123e-08
-8.07579e-08
-5.62229e-08
-7.1455e-08
-5.41799e-08
-6.25183e-08
-5.17829e-08
-5.40009e-08
-4.90353e-08
-4.59542e-08
-4.59457e-08
-3.84278e-08
-4.25287e-08
-3.14681e-08
-3.88063e-08
-2.51181e-08
-3.48093e-08
-1.94166e-08
-3.05791e-08
-1.43978e-08
-2.61695e-08
-1.00909e-08
-2.16496e-08
-6.52061e-09
-1.71064e-08
-3.70753e-09
-1.26475e-08
-1.66997e-09
-8.4046e-09
-4.26386e-10
-4.53552e-09
-1.23812e-09
-5.08556e-10
1.89942e-09
-1.96562e-09
6.31069e-09
-4.31369e-09
1.11211e-08
-7.50246e-09
1.61462e-08
-1.14852e-08
2.12383e-08
-1.62166e-08
2.62775e-08
-2.16511e-08
3.11677e-08
-2.77421e-08
3.58348e-08
-3.44419e-08
4.02228e-08
-4.17013e-08
4.42913e-08
-4.94702e-08
4.80132e-08
-5.76976e-08
5.13719e-08
-6.63324e-08
5.43595e-08
-7.53239e-08
5.69753e-08
-8.46218e-08
5.92243e-08
-9.41768e-08
6.11154e-08
-1.03941e-07
6.26611e-08
-1.13869e-07
6.38758e-08
-1.23916e-07
6.47758e-08
-1.3404e-07
6.53782e-08
-1.442e-07
6.57004e-08
-1.54359e-07
6.57599e-08
-1.6448e-07
6.55737e-08
-1.74531e-07
6.51585e-08
-1.84478e-07
6.45298e-08
-1.94293e-07
6.37025e-08
-2.03948e-07
6.26904e-08
-2.13416e-07
6.15062e-08
-2.22674e-07
6.01615e-08
-2.31697e-07
5.86669e-08
-2.40465e-07
5.7032e-08
-2.48956e-07
5.52652e-08
-2.57153e-07
5.33744e-08
-2.65036e-07
5.13662e-08
-2.72589e-07
4.92467e-08
-2.79795e-07
4.70213e-08
-2.86639e-07
4.46947e-08
-2.93105e-07
4.22714e-08
-2.9918e-07
3.97552e-08
-3.04849e-07
3.71496e-08
-3.101e-07
3.44579e-08
-3.14921e-07
3.16835e-08
-3.19299e-07
2.88294e-08
-3.23222e-07
2.58986e-08
-3.26681e-07
2.28944e-08
-3.29664e-07
1.98201e-08
-3.32162e-07
1.66791e-08
-3.34166e-07
1.34752e-08
-3.35667e-07
1.02124e-08
-3.36657e-07
6.89517e-09
-3.37129e-07
3.52826e-09
-3.37078e-07
1.16942e-10
-3.36498e-07
-3.33303e-09
-3.35384e-07
-6.81537e-09
-3.33733e-07
-1.03232e-08
-3.31543e-07
-1.38491e-08
-3.28813e-07
-1.73849e-08
-3.25544e-07
-2.09218e-08
-3.21738e-07
-2.44504e-08
-3.17397e-07
-2.79604e-08
-3.12527e-07
-3.14409e-08
-3.07135e-07
-3.48803e-08
-3.0123e-07
-3.82661e-08
-2.94821e-07
-4.15851e-08
-2.87922e-07
-4.48233e-08
-2.80547e-07
-4.79661e-08
-2.72714e-07
-5.0998e-08
-2.64442e-07
-5.3903e-08
-2.55753e-07
-5.66644e-08
-2.46671e-07
-5.92647e-08
-2.37223e-07
-6.16862e-08
-2.2744e-07
-6.39105e-08
-2.17352e-07
-6.59189e-08
-2.06996e-07
-6.76926e-08
-1.96409e-07
-6.92124e-08
-1.8563e-07
-7.04595e-08
-1.74703e-07
-7.14148e-08
-1.63673e-07
-7.206e-08
-1.52587e-07
-7.23772e-08
-1.41495e-07
-7.23495e-08
-1.30449e-07
-7.19608e-08
-1.19503e-07
-7.11968e-08
-1.0871e-07
-7.00449e-08
-9.81281e-08
-6.84947e-08
-8.78124e-08
-6.65385e-08
-7.78204e-08
-6.4172e-08
-6.82086e-08
-6.13947e-08
-5.90328e-08
-5.82111e-08
-5.03474e-08
-5.4631e-08
-4.2205e-08
-5.06712e-08
-3.46553e-08
-4.6356e-08
-2.77452e-08
-4.17194e-08
-2.15181e-08
-3.68062e-08
-1.60132e-08
-3.16743e-08
-1.12665e-08
-2.63963e-08
-7.31027e-09
-2.10626e-08
-4.17463e-09
-1.57832e-08
-1.88908e-09
-1.06902e-08
-4.84973e-10
-5.93962e-09
-1.7231e-09
-5.65837e-10
2.46527e-09
-2.18013e-09
7.92498e-09
-4.77124e-09
1.37122e-08
-8.27578e-09
1.96507e-08
-1.26354e-08
2.55979e-08
-1.77945e-08
3.14366e-08
-2.3699e-08
3.70722e-08
-3.02951e-08
4.24309e-08
-3.75289e-08
4.74566e-08
-4.53463e-08
5.21087e-08
-5.36928e-08
5.63598e-08
-6.25141e-08
6.01931e-08
-7.17559e-08
6.36013e-08
-8.13648e-08
6.65842e-08
-9.12881e-08
6.91476e-08
-1.01475e-07
7.13018e-08
-1.11874e-07
7.30608e-08
-1.22439e-07
7.44408e-08
-1.33124e-07
7.54601e-08
-1.43883e-07
7.61378e-08
-1.54676e-07
7.64935e-08
-1.65463e-07
7.65468e-08
-1.76207e-07
7.63171e-08
-1.86871e-07
7.58231e-08
-1.97424e-07
7.50825e-08
-2.07834e-07
7.41123e-08
-2.18071e-07
7.2928e-08
-2.28109e-07
7.15442e-08
-2.37922e-07
6.99742e-08
-2.47485e-07
6.82302e-08
-2.56776e-07
6.63231e-08
-2.65774e-07
6.42627e-08
-2.74458e-07
6.20581e-08
-2.82808e-07
5.97169e-08
-2.90808e-07
5.72464e-08
-2.98439e-07
5.46526e-08
-3.05686e-07
5.19413e-08
-3.12532e-07
4.91175e-08
-3.18963e-07
4.61858e-08
-3.24963e-07
4.31503e-08
-3.30521e-07
4.00151e-08
-3.35621e-07
3.67838e-08
-3.40252e-07
3.34603e-08
-3.44401e-07
3.0048e-08
-3.48058e-07
2.65509e-08
-3.5121e-07
2.29727e-08
-3.53849e-07
1.93175e-08
-3.55963e-07
1.55899e-08
-3.57545e-07
1.17944e-08
-3.58586e-07
7.93622e-09
-3.59079e-07
4.02102e-09
-3.59017e-07
5.48974e-11
-3.58395e-07
-3.95545e-09
-3.57207e-07
-8.00271e-09
-3.55452e-07
-1.20789e-08
-3.53125e-07
-1.61754e-08
-3.50228e-07
-2.02827e-08
-3.46759e-07
-2.43906e-08