/*--------------------------------*- C++ -*----------------------------------*\
| =========                 |                                                 |
| \\      /  F ield         | OpenFOAM: The Open Source CFD Toolbox           |
|  \\    /   O peration     | Version:  2512                                  |
|   \\  /    A nd           | Website:  www.openfoam.com                      |
|    \\/     M anipulation  |                                                 |
\*---------------------------------------------------------------------------*/
FoamFile
{
    version     2.0;
    format      ascii;
    arch        "LSB;label=32;scalar=64";
    class       volVectorField;
    location    "0.12";
    object      U;
}
// * * * * * * * * * * * * * * * * * * * * * * * * * * * * * * * * * * * * * //

dimensions      [0 1 -1 0 0 0 0];

internalField   nonuniform List<vector> 
10000
(
(2.10047e-06 -4.02601e-06 0)
(1.13766e-05 -6.35308e-06 0)
(2.00609e-05 -4.64923e-06 0)
(2.44668e-05 -2.19598e-06 0)
(2.07806e-05 6.31968e-07 0)
(9.08798e-06 3.44326e-06 0)
(-1.05677e-05 6.08244e-06 0)
(-3.78196e-05 8.48827e-06 0)
(-7.20856e-05 1.06406e-05 0)
(-0.000112723 1.25439e-05 0)
(-0.000159075 1.42088e-05 0)
(-0.00021047 1.56514e-05 0)
(-0.000266263 1.68894e-05 0)
(-0.00032584 1.79323e-05 0)
(-0.000388619 1.87899e-05 0)
(-0.000454057 1.94839e-05 0)
(-0.000521652 2.00377e-05 0)
(-0.000590942 2.04637e-05 0)
(-0.000661505 2.07667e-05 0)
(-0.000732946 2.0954e-05 0)
(-0.00080491 2.10394e-05 0)
(-0.000877073 2.10362e-05 0)
(-0.000949143 2.09541e-05 0)
(-0.00102085 2.08015e-05 0)
(-0.00109196 2.05836e-05 0)
(-0.00116224 2.03053e-05 0)
(-0.0012315 1.99729e-05 0)
(-0.00129954 1.9591e-05 0)
(-0.0013662 1.91634e-05 0)
(-0.00143133 1.86948e-05 0)
(-0.00149478 1.81883e-05 0)
(-0.00155641 1.76454e-05 0)
(-0.00161609 1.70675e-05 0)
(-0.00167371 1.64564e-05 0)
(-0.00172915 1.58134e-05 0)
(-0.0017823 1.51393e-05 0)
(-0.00183304 1.4436e-05 0)
(-0.00188129 1.37043e-05 0)
(-0.00192693 1.29442e-05 0)
(-0.00196988 1.2155e-05 0)
(-0.00201002 1.13369e-05 0)
(-0.00204727 1.04912e-05 0)
(-0.00208154 9.61892e-06 0)
(-0.00211273 8.72052e-06 0)
(-0.00214075 7.79622e-06 0)
(-0.00216552 6.84595e-06 0)
(-0.00218696 5.86971e-06 0)
(-0.00220497 4.86831e-06 0)
(-0.00221948 3.84337e-06 0)
(-0.00223042 2.79659e-06 0)
(-0.00223771 1.72902e-06 0)
(-0.00224129 6.41067e-07 0)
(-0.0022411 -4.66477e-07 0)
(-0.00223708 -1.59161e-06 0)
(-0.00222918 -2.73146e-06 0)
(-0.00221736 -3.88306e-06 0)
(-0.00220159 -5.04388e-06 0)
(-0.00218185 -6.21193e-06 0)
(-0.00215811 -7.38473e-06 0)
(-0.00213039 -8.55873e-06 0)
(-0.00209868 -9.72958e-06 0)
(-0.00206302 -1.08927e-05 0)
(-0.00202344 -1.20437e-05 0)
(-0.00197999 -1.31782e-05 0)
(-0.00193274 -1.42916e-05 0)
(-0.00188178 -1.53786e-05 0)
(-0.00182722 -1.64334e-05 0)
(-0.00176917 -1.74501e-05 0)
(-0.00170778 -1.84222e-05 0)
(-0.00164322 -1.93431e-05 0)
(-0.00157567 -2.0206e-05 0)
(-0.00150534 -2.10037e-05 0)
(-0.00143248 -2.17291e-05 0)
(-0.00135734 -2.23746e-05 0)
(-0.0012802 -2.29326e-05 0)
(-0.00120137 -2.33948e-05 0)
(-0.0011212 -2.37528e-05 0)
(-0.00104004 -2.39983e-05 0)
(-0.000958292 -2.4123e-05 0)
(-0.00087637 -2.41186e-05 0)
(-0.00079472 -2.39766e-05 0)
(-0.000713815 -2.36881e-05 0)
(-0.000634153 -2.32443e-05 0)
(-0.00055626 -2.26366e-05 0)
(-0.000480686 -2.18566e-05 0)
(-0.000408004 -2.08955e-05 0)
(-0.000338811 -1.97447e-05 0)
(-0.000273723 -1.83956e-05 0)
(-0.000213371 -1.68404e-05 0)
(-0.000158399 -1.50716e-05 0)
(-0.000109453 -1.30831e-05 0)
(-6.71706e-05 -1.08716e-05 0)
(-3.21617e-05 -8.44022e-06 0)
(-4.97499e-06 -5.80422e-06 0)
(1.39578e-05 -3.00528e-06 0)
(2.44271e-05 -1.3743e-07 0)
(2.66061e-05 2.5926e-06 0)
(2.14213e-05 4.74932e-06 0)
(1.16957e-05 5.42651e-06 0)
(3.10807e-06 3.10978e-06 0)
(3.76298e-06 -1.08295e-05 0)
(1.437e-05 -1.72807e-05 0)
(2.18525e-05 -1.0237e-05 0)
(1.64178e-05 1.99877e-06 0)
(-6.69753e-06 1.6704e-05 0)
(-4.91734e-05 3.20466e-05 0)
(-0.000111432 4.70543e-05 0)
(-0.000192945 6.12218e-05 0)
(-0.00029266 7.42827e-05 0)
(-0.000409207 8.61038e-05 0)
(-0.000541036 9.66519e-05 0)
(-0.000686539 0.00010594 0)
(-0.000844096 0.000114012 0)
(-0.00101212 0.00012092 0)
(-0.00118909 0.000126723 0)
(-0.00137357 0.0001315 0)
(-0.00156418 0.000135332 0)
(-0.00175968 0.00013829 0)
(-0.00195887 0.000140445 0)
(-0.00216068 0.000141862 0)
(-0.00236409 0.000142604 0)
(-0.0025682 0.000142732 0)
(-0.00277217 0.000142302 0)
(-0.00297522 0.000141365 0)
(-0.00317666 0.000139968 0)
(-0.00337584 0.00013815 0)
(-0.00357217 0.000135946 0)
(-0.00376512 0.000133386 0)
(-0.00395418 0.000130501 0)
(-0.00413889 0.000127316 0)
(-0.00431883 0.000123853 0)
(-0.0044936 0.000120125 0)
(-0.00466282 0.000116149 0)
(-0.00482614 0.000111937 0)
(-0.00498323 0.0001075 0)
(-0.00513375 0.000102848 0)
(-0.00527741 9.79866e-05 0)
(-0.0054139 9.29226e-05 0)
(-0.00554293 8.76603e-05 0)
(-0.00566423 8.22045e-05 0)
(-0.00577752 7.65596e-05 0)
(-0.00588253 7.07292e-05 0)
(-0.005979 6.47167e-05 0)
(-0.00606667 5.8526e-05 0)
(-0.0061453 5.21616e-05 0)
(-0.00621465 4.56285e-05 0)
(-0.00627448 3.89313e-05 0)
(-0.00632457 3.20752e-05 0)
(-0.00636469 2.50669e-05 0)
(-0.00639465 1.79147e-05 0)
(-0.00641426 1.06275e-05 0)
(-0.00642333 3.21509e-06 0)
(-0.00642171 -4.312e-06 0)
(-0.00640924 -1.19411e-05 0)
(-0.0063858 -1.96576e-05 0)
(-0.0063513 -2.7445e-05 0)
(-0.00630564 -3.52855e-05 0)
(-0.00624877 -4.31602e-05 0)
(-0.00618068 -5.10486e-05 0)
(-0.00610137 -5.89278e-05 0)
(-0.00601088 -6.67722e-05 0)
(-0.00590929 -7.45543e-05 0)
(-0.00579671 -8.22447e-05 0)
(-0.00567331 -8.98129e-05 0)
(-0.00553929 -9.72262e-05 0)
(-0.00539491 -0.00010445 0)
(-0.00524046 -0.000111447 0)
(-0.00507632 -0.000118177 0)
(-0.00490289 -0.000124599 0)
(-0.00472065 -0.000130671 0)
(-0.00453012 -0.000136347 0)
(-0.00433191 -0.000141582 0)
(-0.00412669 -0.000146328 0)
(-0.00391517 -0.000150536 0)
(-0.00369818 -0.000154154 0)
(-0.00347656 -0.000157132 0)
(-0.00325128 -0.000159417 0)
(-0.00302335 -0.000160955 0)
(-0.00279386 -0.000161695 0)
(-0.00256396 -0.000161582 0)
(-0.0023349 -0.000160564 0)
(-0.00210797 -0.000158589 0)
(-0.00188456 -0.000155606 0)
(-0.00166609 -0.000151566 0)
(-0.00145407 -0.000146421 0)
(-0.00125004 -0.000140129 0)
(-0.00105561 -0.000132652 0)
(-0.000872405 -0.000123956 0)
(-0.000702076 -0.000114021 0)
(-0.000546273 -0.000102839 0)
(-0.000406611 -9.0424e-05 0)
(-0.000284625 -7.68237e-05 0)
(-0.000181704 -6.2142e-05 0)
(-9.89893e-05 -4.65741e-05 0)
(-3.72145e-05 -3.0471e-05 0)
(3.53381e-06 -1.4451e-05 0)
(2.41492e-05 3.97591e-07 0)
(2.70625e-05 1.21909e-05 0)
(1.76678e-05 1.76831e-05 0)
(5.40809e-06 1.1681e-05 0)
(3.73128e-06 -1.9132e-05 0)
(9.0085e-06 -2.32937e-05 0)
(3.05841e-06 -4.48226e-06 0)
(-2.28958e-05 2.68112e-05 0)
(-7.43999e-05 6.42623e-05 0)
(-0.000154003 0.000103894 0)
(-0.000262417 0.000143311 0)
(-0.000399192 0.00018106 0)
(-0.000563049 0.000216286 0)
(-0.000752179 0.000248533 0)
(-0.000964472 0.000277576 0)
(-0.00119765 0.000303355 0)
(-0.00144939 0.000325912 0)
(-0.00171735 0.000345348 0)
(-0.00199926 0.0003618 0)
(-0.00229294 0.000375437 0)
(-0.00259631 0.000386441 0)
(-0.00290743 0.000394997 0)
(-0.00322447 0.000401287 0)
(-0.00354572 0.00040549 0)
(-0.00386962 0.000407777 0)
(-0.00419471 0.000408306 0)
(-0.00451966 0.000407226 0)
(-0.00484325 0.000404678 0)
(-0.00516432 0.000400788 0)
(-0.00548186 0.000395671 0)
(-0.00579491 0.000389427 0)
(-0.00610259 0.000382145 0)
(-0.00640409 0.000373907 0)
(-0.00669867 0.000364785 0)
(-0.00698562 0.000354839 0)
(-0.0072643 0.000344121 0)
(-0.00753409 0.000332675 0)
(-0.00779442 0.000320539 0)
(-0.00804474 0.000307746 0)
(-0.00828453 0.000294324 0)
(-0.00851329 0.000280296 0)
(-0.00873053 0.00026568 0)
(-0.0089358 0.000250493 0)
(-0.00912864 0.00023475 0)
(-0.00930862 0.000218466 0)
(-0.00947531 0.000201653 0)
(-0.0096283 0.000184323 0)
(-0.00976717 0.000166488 0)
(-0.00989155 0.000148162 0)
(-0.0100011 0.00012936 0)
(-0.0100953 0.000110098 0)
(-0.010174 9.03945e-05 0)
(-0.0102368 7.02691e-05 0)
(-0.0102833 4.97451e-05 0)
(-0.0103132 2.88487e-05 0)
(-0.0103264 7.60935e-06 0)
(-0.0103225 -1.39397e-05 0)
(-0.0103014 -3.57613e-05 0)
(-0.0102628 -5.78137e-05 0)
(-0.0102066 -8.00508e-05 0)
(-0.0101326 -0.000102422 0)
(-0.0100409 -0.000124873 0)
(-0.00993142 -0.000147342 0)
(-0.00980412 -0.000169765 0)
(-0.00965912 -0.00019207 0)
(-0.00949656 -0.00021418 0)
(-0.00931663 -0.000236013 0)
(-0.00911961 -0.000257481 0)
(-0.00890583 -0.000278491 0)
(-0.00867572 -0.000298946 0)
(-0.00842976 -0.000318739 0)
(-0.00816852 -0.00033776 0)
(-0.00789269 -0.000355895 0)
(-0.007603 -0.000373022 0)
(-0.00730033 -0.000389017 0)
(-0.00698561 -0.000403749 0)
(-0.0066599 -0.000417084 0)
(-0.00632437 -0.000428886 0)
(-0.00598027 -0.000439013 0)
(-0.005629 -0.000447322 0)
(-0.00527202 -0.000453668 0)
(-0.00491095 -0.000457905 0)
(-0.00454748 -0.000459886 0)
(-0.00418345 -0.000459468 0)
(-0.00382077 -0.000456506 0)
(-0.00346148 -0.000450862 0)
(-0.0031077 -0.000442403 0)
(-0.00276166 -0.000431001 0)
(-0.00242566 -0.00041654 0)
(-0.00210208 -0.00039892 0)
(-0.00179333 -0.000378057 0)
(-0.00150189 -0.000353894 0)
(-0.00123021 -0.000326411 0)
(-0.000980714 -0.000295639 0)
(-0.000755737 -0.000261683 0)
(-0.000557443 -0.000224759 0)
(-0.000387723 -0.000185248 0)
(-0.000248046 -0.000143784 0)
(-0.000139246 -0.000101392 0)
(-6.12346e-05 -5.97143e-05 0)
(-1.26187e-05 -2.13553e-05 0)
(9.81634e-06 9.63894e-06 0)
(1.2246e-05 2.70853e-05 0)
(4.73457e-06 2.13815e-05 0)
(1.80438e-06 -2.21167e-05 0)
(-2.4969e-06 -1.6952e-05 0)
(-2.76248e-05 2.17319e-05 0)
(-8.06078e-05 7.97903e-05 0)
(-0.000166422 0.000147952 0)
(-0.00028763 0.000220134 0)
(-0.000445025 0.000292305 0)
(-0.000638089 0.000361884 0)
(-0.000865361 0.000427271 0)
(-0.00112475 0.000487515 0)
(-0.00141374 0.000542095 0)
(-0.00172958 0.000590802 0)
(-0.00206939 0.000633624 0)
(-0.00243029 0.000670685 0)
(-0.00280941 0.000702202 0)
(-0.00320396 0.000728443 0)
(-0.00361129 0.000749709 0)
(-0.00402888 0.000766318 0)
(-0.00445433 0.000778599 0)
(-0.00488542 0.000786873 0)
(-0.00532008 0.000791453 0)
(-0.00575638 0.000792632 0)
(-0.00619253 0.000790685 0)
(-0.0066269 0.000785873 0)
(-0.00705795 0.000778438 0)
(-0.0074843 0.000768593 0)
(-0.00790465 0.000756533 0)
(-0.00831782 0.000742432 0)
(-0.0087227 0.000726447 0)
(-0.00911826 0.000708715 0)
(-0.00950356 0.000689356 0)
(-0.00987771 0.000668472 0)
(-0.0102399 0.000646151 0)
(-0.0105893 0.000622472 0)
(-0.0109251 0.000597499 0)
(-0.0112468 0.000571291 0)
(-0.0115535 0.000543893 0)
(-0.0118447 0.000515346 0)
(-0.0121197 0.000485685 0)
(-0.0123779 0.000454943 0)
(-0.0126187 0.00042315 0)
(-0.0128416 0.000390332 0)
(-0.013046 0.000356516 0)
(-0.0132313 0.000321729 0)
(-0.0133971 0.000285998 0)
(-0.0135428 0.000249354 0)
(-0.013668 0.000211831 0)
(-0.0137722 0.000173468 0)
(-0.0138549 0.000134304 0)
(-0.0139158 9.43857e-05 0)
(-0.0139545 5.37659e-05 0)
(-0.0139707 1.25031e-05 0)
(-0.0139639 -2.93364e-05 0)
(-0.013934 -7.16794e-05 0)
(-0.0138807 -0.000114445 0)
(-0.0138038 -0.000157542 0)
(-0.0137032 -0.000200875 0)
(-0.0135788 -0.000244335 0)
(-0.0134306 -0.000287806 0)
(-0.0132587 -0.000331159 0)
(-0.0130631 -0.000374259 0)
(-0.0128442 -0.000416956 0)
(-0.012602 -0.000459094 0)
(-0.0123372 -0.000500503 0)
(-0.01205 -0.000541004 0)
(-0.0117411 -0.000580408 0)
(-0.0114112 -0.000618514 0)
(-0.011061 -0.000655111 0)
(-0.0106914 -0.000689978 0)
(-0.0103034 -0.000722884 0)
(-0.00989827 -0.000753591 0)
(-0.00947718 -0.00078185 0)
(-0.00904156 -0.000807406 0)
(-0.00859297 -0.000829998 0)
(-0.00813308 -0.000849358 0)
(-0.00766373 -0.000865214 0)
(-0.00718688 -0.000877294 0)
(-0.00670466 -0.000885321 0)
(-0.00621931 -0.000889023 0)
(-0.00573323 -0.000888127 0)
(-0.00524895 -0.000882372 0)
(-0.00476914 -0.0008715 0)
(-0.00429657 -0.000855272 0)
(-0.00383413 -0.000833463 0)
(-0.00338481 -0.000805875 0)
(-0.00295167 -0.00077234 0)
(-0.00253781 -0.000732736 0)
(-0.00214636 -0.000686995 0)
(-0.00178043 -0.000635133 0)
(-0.00144303 -0.000577269 0)
(-0.00113704 -0.000513679 0)
(-0.000865067 -0.00044485 0)
(-0.000629359 -0.000371579 0)
(-0.000431604 -0.000295114 0)
(-0.000272722 -0.000217355 0)
(-0.000152581 -0.000141173 0)
(-6.96346e-05 -7.08533e-05 0)
(-2.04742e-05 -1.26595e-05 0)
(7.33401e-07 2.43927e-05 0)
(2.62652e-06 2.66213e-05 0)
(-7.03008e-07 -1.86497e-05 0)
(-1.66815e-05 6.46872e-06 0)
(-6.46368e-05 7.3562e-05 0)
(-0.00014873 0.000165739 0)
(-0.00027255 0.000271523 0)
(-0.00043832 0.000382894 0)
(-0.000646572 0.000494318 0)
(-0.000896556 0.000602085 0)
(-0.00118659 0.000703771 0)
(-0.00151432 0.000797856 0)
(-0.00187693 0.000883465 0)
(-0.00227129 0.000960172 0)
(-0.00269411 0.00102786 0)
(-0.00314206 0.00108666 0)
(-0.0036118 0.00113682 0)
(-0.00410007 0.00117873 0)
(-0.00460373 0.0012128 0)
(-0.00511978 0.0012395 0)
(-0.00564536 0.00125933 0)
(-0.00617779 0.00127275 0)
(-0.00671455 0.00128024 0)
(-0.00725331 0.00128226 0)
(-0.00779189 0.00127924 0)
(-0.00832826 0.00127159 0)
(-0.00886057 0.00125967 0)
(-0.00938707 0.00124383 0)
(-0.00990618 0.00122437 0)
(-0.0104164 0.00120159 0)
(-0.0109164 0.00117572 0)
(-0.0114048 0.00114699 0)
(-0.0118806 0.00111559 0)
(-0.0123425 0.0010817 0)
(-0.0127896 0.00104545 0)
(-0.0132208 0.00100698 0)
(-0.0136352 0.000966396 0)
(-0.0140319 0.000923791 0)
(-0.0144101 0.000879247 0)
(-0.0147691 0.000832834 0)
(-0.0151079 0.000784614 0)
(-0.0154258 0.000734642 0)
(-0.0157222 0.000682968 0)
(-0.0159963 0.000629642 0)
(-0.0162474 0.000574709 0)
(-0.0164749 0.000518217 0)
(-0.0166782 0.000460213 0)
(-0.0168566 0.000400751 0)
(-0.0170096 0.000339887 0)
(-0.0171366 0.000277685 0)
(-0.0172371 0.000214215 0)
(-0.0173106 0.000149553 0)
(-0.0173566 8.37865e-05 0)
(-0.0173748 1.70119e-05 0)
(-0.0173647 -5.06625e-05 0)
(-0.017326 -0.000119117 0)
(-0.0172585 -0.000188218 0)
(-0.017162 -0.000257822 0)
(-0.0170362 -0.00032777 0)
(-0.0168813 -0.000397887 0)
(-0.016697 -0.000467985 0)
(-0.0164836 -0.000537859 0)
(-0.0162411 -0.000607288 0)
(-0.01597 -0.000676034 0)
(-0.0156704 -0.000743845 0)
(-0.015343 -0.000810449 0)
(-0.0149882 -0.00087556 0)
(-0.0146069 -0.000938873 0)
(-0.0141997 -0.00100007 0)
(-0.0137678 -0.00105881 0)
(-0.0133123 -0.00111474 0)
(-0.0128343 -0.0011675 0)
(-0.0123353 -0.00121669 0)
(-0.0118169 -0.00126194 0)
(-0.0112808 -0.00130283 0)
(-0.0107289 -0.00133895 0)
(-0.0101633 -0.00136988 0)
(-0.00958609 -0.00139518 0)
(-0.00899982 -0.00141443 0)
(-0.008407 -0.00142718 0)
(-0.00781037 -0.00143303 0)
(-0.00721284 -0.00143154 0)
(-0.00661746 -0.0014223 0)
(-0.00602744 -0.00140493 0)
(-0.00544611 -0.00137907 0)
(-0.00487693 -0.00134438 0)
(-0.00432345 -0.00130057 0)
(-0.00378931 -0.00124743 0)
(-0.00327817 -0.00118479 0)
(-0.0027937 -0.00111261 0)
(-0.00233951 -0.00103098 0)
(-0.00191909 -0.00094015 0)
(-0.00153573 -0.000840637 0)
(-0.00119239 -0.000733285 0)
(-0.000891583 -0.000619399 0)
(-0.000635218 -0.000500933 0)
(-0.000424363 -0.000380743 0)
(-0.00025902 -0.000262953 0)
(-0.000137801 -0.000153454 0)
(-5.75635e-05 -6.05029e-05 0)
(-1.35946e-05 4.48403e-06 0)
(-3.88706e-09 2.47049e-05 0)
(-3.35182e-06 -7.26477e-06 0)
(-3.18535e-05 4.92168e-05 0)
(-0.000104415 0.000153703 0)
(-0.000221703 0.000287572 0)
(-0.000385571 0.000437599 0)
(-0.000597523 0.000594214 0)
(-0.000857579 0.000750587 0)
(-0.0011646 0.000901958 0)
(-0.0015166 0.0010451 0)
(-0.00191094 0.0011779 0)
(-0.00234449 0.00129911 0)
(-0.00281383 0.00140803 0)
(-0.00331533 0.00150444 0)
(-0.00384529 0.00158842 0)
(-0.0044 0.00166026 0)
(-0.0049758 0.00172042 0)
(-0.00556916 0.00176945 0)
(-0.00617667 0.00180797 0)
(-0.00679508 0.00183664 0)
(-0.00742132 0.0018561 0)
(-0.00805251 0.00186701 0)
(-0.00868593 0.00186999 0)
(-0.00931908 0.00186566 0)
(-0.00994958 0.00185458 0)
(-0.0105753 0.00183727 0)
(-0.0111941 0.00181423 0)
(-0.0118043 0.00178589 0)
(-0.0124039 0.00175266 0)
(-0.0129915 0.0017149 0)
(-0.0135655 0.00167293 0)
(-0.0141245 0.00162703 0)
(-0.0146672 0.00157745 0)
(-0.0151923 0.00152441 0)
(-0.0156987 0.0014681 0)
(-0.0161853 0.00140867 0)
(-0.016651 0.00134628 0)
(-0.0170948 0.00128105 0)
(-0.0175159 0.00121307 0)
(-0.0179131 0.00114246 0)
(-0.0182858 0.00106928 0)
(-0.0186329 0.000993631 0)
(-0.0189538 0.000915576 0)
(-0.0192476 0.000835188 0)
(-0.0195135 0.000752542 0)
(-0.0197508 0.000667713 0)
(-0.0199588 0.000580782 0)
(-0.0201369 0.000491835 0)
(-0.0202844 0.000400967 0)
(-0.0204006 0.000308283 0)
(-0.0204851 0.000213898 0)
(-0.0205373 0.000117942 0)
(-0.0205568 2.0559e-05 0)
(-0.020543 -7.80927e-05 0)
(-0.0204958 -0.000177837 0)
(-0.0204147 -0.00027848 0)
(-0.0202995 -0.00037981 0)
(-0.0201502 -0.000481594 0)
(-0.0199666 -0.000583579 0)
(-0.0197487 -0.00068549 0)
(-0.0194967 -0.000787029 0)
(-0.0192108 -0.000887877 0)
(-0.0188912 -0.00098769 0)
(-0.0185386 -0.0010861 0)
(-0.0181534 -0.00118272 0)
(-0.0177363 -0.00127712 0)
(-0.0172882 -0.00136888 0)
(-0.0168101 -0.00145753 0)
(-0.0163031 -0.00154259 0)
(-0.0157685 -0.00162353 0)
(-0.0152079 -0.00169985 0)
(-0.0146228 -0.00177099 0)
(-0.0140151 -0.00183638 0)
(-0.0133869 -0.00189544 0)
(-0.0127403 -0.00194759 0)
(-0.0120778 -0.00199221 0)
(-0.0114018 -0.00202869 0)
(-0.0107153 -0.00205642 0)
(-0.0100211 -0.0020748 0)
(-0.00932252 -0.00208321 0)
(-0.00862279 -0.00208107 0)
(-0.00792544 -0.00206781 0)
(-0.00723415 -0.00204289 0)
(-0.00655274 -0.00200582 0)
(-0.00588515 -0.00195616 0)
(-0.0052354 -0.00189354 0)
(-0.00460761 -0.00181767 0)
(-0.00400589 -0.00172839 0)
(-0.00343437 -0.0016257 0)
(-0.00289707 -0.00150979 0)
(-0.00239786 -0.0013811 0)
(-0.00194036 -0.00124043 0)
(-0.00152784 -0.00108903 0)
(-0.00116309 -0.000928778 0)
(-0.000848227 -0.000762355 0)
(-0.000584588 -0.000593568 0)
(-0.000372487 -0.000427724 0)
(-0.000210952 -0.000272145 0)
(-9.74485e-05 -0.000136745 0)
(-2.88685e-05 -3.47972e-05 0)
(-2.72367e-06 1.4836e-05 0)
(-5.93701e-06 1.21255e-05 0)
(-4.70385e-05 0.000111949 0)
(-0.000144671 0.000263313 0)
(-0.000295867 0.000446577 0)
(-0.000500518 0.000647358 0)
(-0.000759177 0.000854927 0)
(-0.00107117 0.00106139 0)
(-0.00143482 0.0012611 0)
(-0.00184773 0.00145009 0)
(-0.00230692 0.00162572 0)
(-0.00280897 0.00178632 0)
(-0.00335015 0.00193096 0)
(-0.00392654 0.00205927 0)
(-0.00453412 0.00217126 0)
(-0.00516887 0.00226727 0)
(-0.00582682 0.00234782 0)
(-0.00650407 0.00241358 0)
(-0.00719689 0.00246534 0)
(-0.00790171 0.00250389 0)
(-0.00861512 0.00253009 0)
(-0.00933391 0.00254476 0)
(-0.0100551 0.00254874 0)
(-0.0107758 0.0025428 0)
(-0.0114933 0.00252769 0)
(-0.0122054 0.00250411 0)
(-0.0129095 0.00247271 0)
(-0.0136037 0.00243407 0)
(-0.0142859 0.00238874 0)
(-0.0149543 0.0023372 0)
(-0.0156072 0.00227989 0)
(-0.0162429 0.00221718 0)
(-0.01686 0.00214942 0)
(-0.0174571 0.0020769 0)
(-0.0180327 0.00199989 0)
(-0.0185857 0.00191862 0)
(-0.0191149 0.00183328 0)
(-0.019619 0.00174404 0)
(-0.0200971 0.00165106 0)
(-0.020548 0.00155447 0)
(-0.0209708 0.00145439 0)
(-0.0213645 0.00135094 0)
(-0.0217282 0.00124423 0)
(-0.0220609 0.00113435 0)
(-0.0223618 0.00102142 0)
(-0.0226302 0.000905538 0)
(-0.0228651 0.000786821 0)
(-0.0230659 0.000665393 0)
(-0.0232318 0.000541385 0)
(-0.0233621 0.000414944 0)
(-0.0234563 0.000286231 0)
(-0.0235138 0.000155427 0)
(-0.023534 2.27284e-05 0)
(-0.0235165 -0.000111645 0)
(-0.0234609 -0.000247453 0)
(-0.0233668 -0.000384431 0)
(-0.0232342 -0.000522288 0)
(-0.0230627 -0.000660708 0)
(-0.0228523 -0.000799346 0)
(-0.0226031 -0.000937828 0)
(-0.0223153 -0.00107575 0)
(-0.021989 -0.00121268 0)
(-0.0216247 -0.00134815 0)
(-0.0212229 -0.00148167 0)
(-0.0207843 -0.0016127 0)
(-0.0203096 -0.00174068 0)
(-0.0197999 -0.00186503 0)
(-0.0192563 -0.00198511 0)
(-0.0186801 -0.00210028 0)
(-0.0180728 -0.00220985 0)
(-0.0174361 -0.00231311 0)
(-0.0167718 -0.00240932 0)
(-0.016082 -0.00249773 0)
(-0.0153691 -0.00257756 0)
(-0.0146354 -0.00264801 0)
(-0.0138838 -0.00270828 0)
(-0.013117 -0.00275755 0)
(-0.0123383 -0.00279501 0)
(-0.0115509 -0.00281985 0)
(-0.0107584 -0.00283127 0)
(-0.00996445 -0.00282852 0)
(-0.00917306 -0.00281083 0)
(-0.00838825 -0.00277753 0)
(-0.00761426 -0.00272798 0)
(-0.00685542 -0.00266163 0)
(-0.00611618 -0.00257803 0)
(-0.00540106 -0.00247686 0)
(-0.00471455 -0.00235795 0)
(-0.00406115 -0.00222137 0)
(-0.00344523 -0.00206743 0)
(-0.00287098 -0.00189681 0)
(-0.00234234 -0.00171061 0)
(-0.00186285 -0.00151052 0)
(-0.00143558 -0.00129898 0)
(-0.00106296 -0.0010794 0)
(-0.000746665 -0.000856475 0)
(-0.000487472 -0.000636556 0)
(-0.000285032 -0.000428159 0)
(-0.000137645 -0.000242488 0)
(-4.40465e-05 -9.41115e-05 0)
(-5.33516e-06 -3.04541e-06 0)
(-8.37873e-06 3.92786e-05 0)
(-6.17193e-05 0.000194575 0)
(-0.000184072 0.00040245 0)
(-0.000368921 0.000642905 0)
(-0.000614119 0.000900901 0)
(-0.000919159 0.00116491 0)
(-0.00128253 0.00142624 0)
(-0.0017019 0.00167853 0)
(-0.00217438 0.00191722 0)
(-0.00269659 0.00213918 0)
(-0.00326479 0.00234237 0)
(-0.00387492 0.00252563 0)
(-0.0045228 0.00268844 0)
(-0.00520412 0.00283078 0)
(-0.00591457 0.00295297 0)
(-0.0066499 0.00305563 0)
(-0.00740594 0.00313955 0)
(-0.00817867 0.00320564 0)
(-0.00896422 0.00325488 0)
(-0.00975892 0.00328831 0)
(-0.0105593 0.00330696 0)
(-0.011362 0.00331184 0)
(-0.0121639 0.00330394 0)
(-0.0129623 0.00328419 0)
(-0.0137543 0.00325346 0)
(-0.0145375 0.00321258 0)
(-0.0153095 0.00316229 0)
(-0.016068 0.00310329 0)
(-0.0168112 0.00303619 0)
(-0.017537 0.00296155 0)
(-0.0182436 0.00287987 0)
(-0.0189294 0.0027916 0)
(-0.0195928 0.00269711 0)
(-0.0202323 0.00259675 0)
(-0.0208466 0.00249082 0)
(-0.0214342 0.00237958 0)
(-0.0219939 0.00226326 0)
(-0.0225244 0.00214207 0)
(-0.0230247 0.00201619 0)
(-0.0234936 0.00188577 0)
(-0.0239301 0.00175099 0)
(-0.024333 0.00161198 0)
(-0.0247015 0.00146887 0)
(-0.0250345 0.00132182 0)
(-0.0253312 0.00117098 0)
(-0.0255907 0.00101648 0)
(-0.0258121 0.000858508 0)
(-0.0259947 0.000697229 0)
(-0.0261378 0.000532839 0)
(-0.0262407 0.000365552 0)
(-0.0263027 0.000195605 0)
(-0.0263233 2.32576e-05 0)
(-0.026302 -0.000151205 0)
(-0.0262384 -0.000327467 0)
(-0.0261321 -0.000505184 0)
(-0.025983 -0.000683979 0)
(-0.0257908 -0.000863441 0)
(-0.0255555 -0.00104312 0)
(-0.0252772 -0.00122254 0)
(-0.024956 -0.00140117 0)
(-0.0245923 -0.00157845 0)
(-0.0241865 -0.00175378 0)
(-0.0237392 -0.00192652 0)
(-0.0232511 -0.00209599 0)
(-0.0227232 -0.00226147 0)
(-0.0221566 -0.00242219 0)
(-0.0215525 -0.00257734 0)
(-0.0209123 -0.0027261 0)
(-0.0202378 -0.00286758 0)
(-0.0195309 -0.00300087 0)
(-0.0187934 -0.00312504 0)
(-0.0180279 -0.0032391 0)
(-0.0172367 -0.00334207 0)
(-0.0164227 -0.00343293 0)
(-0.0155888 -0.00351065 0)
(-0.0147381 -0.00357421 0)
(-0.0138742 -0.00362257 0)
(-0.0130006 -0.00365471 0)
(-0.0121212 -0.00366964 0)
(-0.0112401 -0.00366638 0)
(-0.0103615 -0.00364403 0)
(-0.00948982 -0.00360171 0)
(-0.00862969 -0.00353868 0)
(-0.0077858 -0.00345425 0)
(-0.00696292 -0.00334792 0)
(-0.00616591 -0.00321932 0)
(-0.00539962 -0.00306832 0)
(-0.00466886 -0.00289505 0)
(-0.0039783 -0.00269998 0)
(-0.00333243 -0.00248401 0)
(-0.00273549 -0.00224857 0)
(-0.00219131 -0.0019958 0)
(-0.00170327 -0.00172867 0)
(-0.00127414 -0.00145127 0)
(-0.000906058 -0.00116907 0)
(-0.000600378 -0.000889323 0)
(-0.000357499 -0.000621471 0)
(-0.000176685 -0.000377645 0)
(-5.85753e-05 -0.000173214 0)
(-7.75594e-06 -2.86477e-05 0)
(-1.06381e-05 7.38087e-05 0)
(-7.56346e-05 0.000296461 0)
(-0.000221878 0.000570461 0)
(-0.000439474 0.000875933 0)
(-0.000724312 0.00119757 0)
(-0.00107477 0.00152338 0)
(-0.00148842 0.00184414 0)
(-0.00196219 0.00215296 0)
(-0.00249264 0.0024448 0)
(-0.00307593 0.00271615 0)
(-0.00370794 0.00296468 0)
(-0.00438431 0.00318901 0)
(-0.00510055 0.00338849 0)
(-0.00585209 0.00356306 0)
(-0.00663436 0.00371308 0)
(-0.00744286 0.00383921 0)
(-0.00827316 0.00394238 0)
(-0.009121 0.00402364 0)
(-0.00998227 0.00408416 0)
(-0.010853 0.00412514 0)
(-0.0117296 0.00414783 0)
(-0.0126083 0.00415344 0)
(-0.013486 0.00414315 0)
(-0.0143595 0.00411809 0)
(-0.0152259 0.00407933 0)
(-0.0160825 0.00402787 0)
(-0.0169267 0.00396463 0)
(-0.0177561 0.00389046 0)
(-0.0185684 0.00380612 0)
(-0.0193618 0.0037123 0)
(-0.020134 0.00360963 0)
(-0.0208834 0.00349865 0)
(-0.0216082 0.00337985 0)
(-0.0223068 0.00325366 0)
(-0.0229777 0.00312046 0)
(-0.0236193 0.00298058 0)
(-0.0242303 0.00283432 0)
(-0.0248094 0.00268195 0)
(-0.0253552 0.00252368 0)
(-0.0258667 0.00235975 0)
(-0.0263425 0.00219034 0)
(-0.0267817 0.00201564 0)
(-0.027183 0.00183585 0)
(-0.0275456 0.00165114 0)
(-0.0278683 0.0014617 0)
(-0.0281504 0.00126774 0)
(-0.0283907 0.00106946 0)
(-0.0285887 0.000867085 0)
(-0.0287433 0.000660872 0)
(-0.028854 0.000451088 0)
(-0.02892 0.000238033 0)
(-0.0289408 2.20357e-05 0)
(-0.0289159 -0.000196544 0)
(-0.0288447 -0.00041731 0)
(-0.028727 -0.000639829 0)
(-0.0285625 -0.000863627 0)
(-0.028351 -0.00108819 0)
(-0.0280925 -0.00131296 0)
(-0.0277871 -0.00153732 0)
(-0.027435 -0.00176064 0)
(-0.0270365 -0.0019822 0)
(-0.0265922 -0.00220127 0)
(-0.0261027 -0.00241703 0)
(-0.0255688 -0.00262865 0)
(-0.0249916 -0.00283521 0)
(-0.0243722 -0.00303579 0)
(-0.023712 -0.00322937 0)
(-0.0230127 -0.00341492 0)
(-0.0222759 -0.00359135 0)
(-0.0215039 -0.00375753 0)
(-0.0206987 -0.0039123 0)
(-0.0198629 -0.00405445 0)
(-0.0189992 -0.00418277 0)
(-0.0181107 -0.00429601 0)
(-0.0172004 -0.00439289 0)
(-0.0162719 -0.00447217 0)
(-0.0153288 -0.00453257 0)
(-0.0143751 -0.00457285 0)
(-0.0134149 -0.0045918 0)
(-0.0124526 -0.00458825 0)
(-0.0114927 -0.0045611 0)
(-0.0105399 -0.00450933 0)
(-0.00959923 -0.00443203 0)
(-0.00867559 -0.00432844 0)
(-0.0077741 -0.00419794 0)
(-0.00689994 -0.00404018 0)
(-0.00605823 -0.00385503 0)
(-0.00525408 -0.00364272 0)
(-0.00449245 -0.00340388 0)
(-0.00377813 -0.00313964 0)
(-0.00311562 -0.00285175 0)
(-0.00250909 -0.00254276 0)
(-0.00196224 -0.00221615 0)
(-0.00147829 -0.0018766 0)
(-0.00105986 -0.00153026 0)
(-0.00070897 -0.00118507 0)
(-0.000426844 -0.000851193 0)
(-0.000213753 -0.00054135 0)
(-7.21838e-05 -0.00027131 0)
(-9.95837e-06 -6.14975e-05 0)
(-1.27061e-05 0.00011525 0)
(-8.86808e-05 0.000416696 0)
(-0.000257691 0.000766269 0)
(-0.000506753 0.00114451 0)
(-0.000829882 0.00153616 0)
(-0.00122435 0.00192905 0)
(-0.00168677 0.00231367 0)
(-0.00221332 0.00268276 0)
(-0.00279991 0.00303097 0)
(-0.00344223 0.00335449 0)
(-0.00413573 0.00365076 0)
(-0.00487572 0.00391826 0)
(-0.0056574 0.00415624 0)
(-0.00647595 0.00436461 0)
(-0.00732654 0.00454376 0)
(-0.00820442 0.00469445 0)
(-0.00910495 0.00481771 0)
(-0.0100236 0.00491475 0)
(-0.0109562 0.00498692 0)
(-0.0118984 0.00503562 0)
(-0.0128463 0.00506228 0)
(-0.0137963 0.00506833 0)
(-0.0147448 0.00505516 0)
(-0.0156885 0.0050241 0)
(-0.0166242 0.00497642 0)
(-0.0175491 0.0049133 0)
(-0.0184605 0.00483585 0)
(-0.0193558 0.00474508 0)
(-0.0202326 0.00464189 0)
(-0.0210886 0.00452714 0)
(-0.0219219 0.00440155 0)
(-0.0227303 0.00426582 0)
(-0.0235121 0.00412052 0)
(-0.0242655 0.00396619 0)
(-0.0249889 0.00380328 0)
(-0.0256806 0.00363221 0)
(-0.0263391 0.00345335 0)
(-0.0269632 0.00326701 0)
(-0.0275512 0.0030735 0)
(-0.0281021 0.00287308 0)
(-0.0286144 0.00266599 0)
(-0.0290871 0.00245248 0)
(-0.0295189 0.00223278 0)
(-0.0299088 0.00200712 0)
(-0.0302557 0.00177574 0)
(-0.0305585 0.00153889 0)
(-0.0308165 0.00129681 0)
(-0.0310285 0.00104981 0)
(-0.0311939 0.000798189 0)
(-0.0313118 0.000542276 0)
(-0.0313815 0.000282444 0)
(-0.0314025 1.90936e-05 0)
(-0.0313741 -0.000247332 0)
(-0.0312959 -0.000516348 0)
(-0.0311675 -0.000787427 0)
(-0.0309887 -0.00105999 0)
(-0.0307593 -0.00133341 0)
(-0.0304793 -0.00160701 0)
(-0.0301487 -0.00188005 0)
(-0.0297679 -0.00215173 0)
(-0.0293372 -0.00242122 0)
(-0.0288571 -0.0026876 0)
(-0.0283285 -0.0029499 0)
(-0.027752 -0.00320709 0)
(-0.027129 -0.0034581 0)
(-0.0264606 -0.00370176 0)
(-0.0257483 -0.00393688 0)
(-0.0249939 -0.0041622 0)
(-0.0241993 -0.00437641 0)
(-0.0233666 -0.00457814 0)
(-0.0224984 -0.004766 0)
(-0.0215973 -0.00493854 0)
(-0.0206661 -0.0050943 0)
(-0.0197081 -0.00523176 0)
(-0.0187266 -0.00534944 0)
(-0.0177255 -0.0054458 0)
(-0.0167085 -0.00551936 0)
(-0.0156799 -0.00556864 0)
(-0.0146441 -0.00559219 0)
(-0.0136057 -0.00558864 0)
(-0.0125695 -0.0055567 0)
(-0.0115406 -0.00549519 0)
(-0.010524 -0.00540304 0)
(-0.0095252 -0.0052794 0)
(-0.00854944 -0.00512359 0)
(-0.0076022 -0.00493521 0)
(-0.00668888 -0.0047142 0)
(-0.00581487 -0.00446084 0)
(-0.0049854 -0.00417594 0)
(-0.00420554 -0.00386084 0)
(-0.00348012 -0.00351762 0)
(-0.00281361 -0.00314918 0)
(-0.00221012 -0.00275945 0)
(-0.0016733 -0.00235364 0)
(-0.00120634 -0.00193842 0)
(-0.000811971 -0.00152229 0)
(-0.00049225 -0.00111588 0)
(-0.000248446 -0.00073227 0)
(-8.47632e-05 -0.000387307 0)
(-1.19419e-05 -0.000101047 0)
(-1.45978e-05 0.00016311 0)
(-0.000100832 0.000554255 0)
(-0.000291358 0.000988543 0)
(-0.000570386 0.00144716 0)
(-0.000930183 0.00191512 0)
(-0.00136695 0.00238031 0)
(-0.00187639 0.00283311 0)
(-0.00245386 0.0032661 0)
(-0.00309462 0.00367371 0)
(-0.00379382 0.00405198 0)
(-0.00454649 0.00439818 0)
(-0.00534758 0.00471069 0)
(-0.00619197 0.00498873 0)
(-0.00707455 0.00523221 0)
(-0.00799026 0.00544156 0)
(-0.00893411 0.00561765 0)
(-0.00990127 0.00576162 0)
(-0.010887 0.00587486 0)
(-0.0118868 0.00595889 0)
(-0.0128964 0.00601532 0)
(-0.0139116 0.00604578 0)
(-0.0149284 0.00605191 0)
(-0.0159433 0.0060353 0)
(-0.0169527 0.00599752 0)
(-0.0179534 0.00594002 0)
(-0.0189422 0.00586418 0)
(-0.0199164 0.00577129 0)
(-0.0208732 0.00566252 0)
(-0.0218101 0.00553897 0)
(-0.0227246 0.00540161 0)
(-0.0236147 0.00525132 0)
(-0.0244782 0.0050889 0)
(-0.0253131 0.00491505 0)
(-0.0261175 0.0047304 0)
(-0.0268897 0.00453551 0)
(-0.0276281 0.00433087 0)
(-0.0283309 0.00411691 0)
(-0.0289968 0.00389405 0)
(-0.0296242 0.00366262 0)
(-0.0302117 0.00342296 0)
(-0.0307581 0.00317536 0)
(-0.031262 0.00292013 0)
(-0.0317222 0.00265755 0)
(-0.0321375 0.00238789 0)
(-0.0325069 0.00211145 0)
(-0.0328293 0.00182852 0)
(-0.0331035 0.00153943 0)
(-0.0333289 0.00124452 0)
(-0.0335043 0.000944157 0)
(-0.033629 0.000638748 0)
(-0.0337023 0.000328732 0)
(-0.0337235 1.4594e-05 0)
(-0.033692 -0.000303138 0)
(-0.0336074 -0.000623884 0)
(-0.0334692 -0.000947014 0)
(-0.0332772 -0.00127184 0)
(-0.0330313 -0.00159761 0)