/*--------------------------------*- C++ -*----------------------------------*\
| =========                 |                                                 |
| \\      /  F ield         | OpenFOAM: The Open Source CFD Toolbox           |
|  \\    /   O peration     | Version:  2512                                  |
|   \\  /    A nd           | Website:  www.openfoam.com                      |
|    \\/     M anipulation  |                                                 |
\*---------------------------------------------------------------------------*/
FoamFile
{
    version     2.0;
    format      ascii;
    arch        "LSB;label=32;scalar=64";
    class       volScalarField;
    location    "0.48";
    object      p;
}
// * * * * * * * * * * * * * * * * * * * * * * * * * * * * * * * * * * * * * //

dimensions      [0 2 -2 0 0 0 0];

internalField   nonuniform List<scalar> 
10000
(
2.58305e-09
4.43549e-06
-2.46685e-05
-8.88602e-05
-0.000181525
-0.000296114
-0.000426485
-0.000567095
-0.000713166
-0.00086067
-0.00100625
-0.00114712
-0.00128099
-0.00140598
-0.00152059
-0.0016236
-0.00171405
-0.0017912
-0.00185446
-0.0019034
-0.00193768
-0.00195709
-0.00196145
-0.00195069
-0.00192474
-0.0018836
-0.00182726
-0.00175577
-0.00166918
-0.00156757
-0.00145102
-0.00131965
-0.0011736
-0.00101302
-0.000838117
-0.000649101
-0.000446237
-0.000229837
-2.5719e-07
0.000242087
0.000496718
0.000763099
0.00104061
0.00132858
0.00162622
0.00193271
0.00224712
0.00256844
0.00289557
0.00322736
0.00356254
0.00389979
0.00423771
0.00457486
0.0049097
0.0052407
0.00556624
0.00588471
0.00619448
0.00649393
0.00678144
0.00705543
0.00731439
0.00755684
0.00778142
0.00798684
0.00817194
0.00833568
0.00847716
0.00859568
0.00869067
0.00876175
0.00880874
0.00883167
0.00883075
0.00880643
0.00875935
0.0086904
0.00860066
0.00849145
0.00836428
0.00822088
0.00806318
0.00789329
0.00771353
0.0075264
0.00733456
0.00714085
0.00694828
0.00676004
0.00657947
0.00641005
0.00625542
0.00611931
0.00600549
0.00591751
0.00585828
0.00582935
0.00582999
0.0058508
-4.56676e-06
-1.61112e-07
-2.69566e-05
-8.286e-05
-0.000161927
-0.000259512
-0.000371078
-0.00049218
-0.000618834
-0.000747531
-0.000875253
-0.000999437
-0.00111791
-0.00122888
-0.00133084
-0.00142258
-0.00150311
-0.00157163
-0.00162752
-0.00167028
-0.00169954
-0.001715
-0.00171647
-0.0017038
-0.0016769
-0.00163571
-0.00158022
-0.00151042
-0.00142636
-0.00132809
-0.00121568
-0.00108925
-0.000948932
-0.000794866
-0.000627245
-0.000446293
-0.00025227
-4.54841e-05
0.000173712
0.000404912
0.000647644
0.000901384
0.00116554
0.00143944
0.00172235
0.00201346
0.00231189
0.00261668
0.0029268
0.00324112
0.00355847
0.00387759
0.00419717
0.00451585
0.0048322
0.00514476
0.00545205
0.00575255
0.00604475
0.00632713
0.00659821
0.00685651
0.00710064
0.00732926
0.00754109
0.00773496
0.00790981
0.00806469
0.00819881
0.00831151
0.00840232
0.00847091
0.00851713
0.00854104
0.00854287
0.00852307
0.00848228
0.00842133
0.00834129
0.00824339
0.00812907
0.00799996
0.00785789
0.00770484
0.00754297
0.00737461
0.00720223
0.00702845
0.00685604
0.00668787
0.00652693
0.0063763
0.0062391
0.00611843
0.0060173
0.00593838
0.0058836
0.00585389
0.00585071
0.00587157
2.42999e-05
2.63594e-05
-5.2132e-07
-5.26462e-05
-0.000124332
-0.000211868
-0.000311582
-0.000419816
-0.000533169
-0.000648588
-0.00076339
-0.000875239
-0.000982131
-0.00108237
-0.00117454
-0.00125744
-0.00133011
-0.00139173
-0.00144167
-0.00147942
-0.00150456
-0.00151679
-0.00151587
-0.00150163
-0.00147396
-0.00143276
-0.00137801
-0.00130968
-0.00122778
-0.00113237
-0.00102351
-0.000901299
-0.000765854
-0.000617322
-0.000455883
-0.000281757
-9.51958e-05
0.0001035
0.000313982
0.000535856
0.000768667
0.0010119
0.00126499
0.00152728
0.00179807
0.00207658
0.00236196
0.00265329
0.00294959
0.00324979
0.00355275
0.0038573
0.00416218
0.0044661
0.00476771
0.00506562
0.00535843
0.00564471
0.00592303
0.00619197
0.00645012
0.0066961
0.00692861
0.00714638
0.00734823
0.00753306
0.00769988
0.00784781
0.00797613
0.00808425
0.00817172
0.00823826
0.00828375
0.00830827
0.00831207
0.00829557
0.00825942
0.00820442
0.0081316
0.00804213
0.0079374
0.00781896
0.00768854
0.00754801
0.00739942
0.00724495
0.00708691
0.00692775
0.00677
0.0066163
0.00646936
0.00633193
0.00620676
0.00609655
0.00600385
0.00593093
0.00587941
0.00585035
0.00584741
0.0058724
8.84443e-05
8.21411e-05
5.11382e-05
-1.28773e-06
-7.0389e-05
-0.000152959
-0.000245869
-0.000346018
-0.000450491
-0.000556641
-0.000662093
-0.000764756
-0.000862815
-0.000954709
-0.00103911
-0.00111491
-0.00118117
-0.00123711
-0.00128211
-0.00131565
-0.00133733
-0.00134682
-0.0013439
-0.00132835
-0.00130006
-0.00125892
-0.00120488
-0.0011379
-0.00105799
-0.000965178
-0.000859529
-0.000741123
-0.000610067
-0.000466502
-0.000310597
-0.00014256
3.73646e-05
0.000228887
0.000431674
0.000645343
0.000869457
0.00110352
0.00134698
0.00159922
0.00185955
0.00212724
0.00240146
0.00268133
0.0029659
0.00325416
0.00354502
0.00383735
0.00412995
0.00442158
0.00471094
0.00499674
0.00527762
0.00555221
0.00581915
0.00607709
0.00632469
0.00656064
0.0067837
0.00699267
0.00718642
0.00736391
0.00752421
0.0076665
0.0077901
0.00789444
0.00797912
0.00804389
0.00808865
0.00811348
0.00811863
0.00810455
0.00807185
0.00802131
0.00795392
0.00787082
0.00777334
0.00766296
0.00754134
0.00741025
0.00727163
0.00712755
0.00698017
0.00683178
0.00668474
0.00654148
0.00640448
0.00627625
0.00615925
0.0060559
0.00596851
0.00589918
0.00584946
0.00582073
0.00581778
0.0058442
0.000181782
0.000161577
0.000122619
6.6846e-05
-2.75833e-06
-8.34174e-05
-0.000172441
-0.000267226
-0.000365314
-0.00046443
-0.000562508
-0.000657715
-0.000748433
-0.000833255
-0.000910979
-0.000980577
-0.00104118
-0.00109207
-0.00113264
-0.00116239
-0.00118094
-0.00118797
-0.00118324
-0.00116655
-0.00113775
-0.00109675
-0.00104348
-0.000977879
-0.000899957
-0.000809733
-0.000707252
-0.000592583
-0.000465825
-0.000327104
-0.000176582
-1.44522e-05
0.000159054
0.000343662
0.000539055
0.000744866
0.000960678
0.00118602
0.00142036
0.0016631
0.0019136
0.00217114
0.00243493
0.00270414
0.00297785
0.00325508
0.00353479
0.0038159
0.00409727
0.0043777
0.00465596
0.00493078
0.00520088
0.00546495
0.00572168
0.00596977
0.00620794
0.00643495
0.00664959
0.00685073
0.00703728
0.00720825
0.00736275
0.00750001
0.00761937
0.00772031
0.00780245
0.00786554
0.00790952
0.00793446
0.00794064
0.00792846
0.00789854
0.00785165
0.00778872
0.00771087
0.00761936
0.00751563
0.00740125
0.00727791
0.00714746
0.00701184
0.0068731
0.00673338
0.00659486
0.00645979
0.00633046
0.00620915
0.00609811
0.00599953
0.00591551
0.00584801
0.00579857
0.00576871
0.00576338
0.00578646
0.000298264
0.000260374
0.000210482
0.000148705
7.59628e-05
-5.39114e-06
-9.30461e-05
-0.000184864
-0.000278792
-0.000372906
-0.000465446
-0.000554828
-0.000639639
-0.000718645
-0.000790771
-0.000855095
-0.000910833
-0.000957324
-0.000994014
-0.00102044
-0.00103625
-0.00104112
-0.00103483
-0.00101718
-0.000988041
-0.000947287
-0.000894845
-0.000830671
-0.00075475
-0.000667093
-0.000567731
-0.000456723
-0.000334157
-0.000200144
-5.4833e-05
0.000101598
0.000268934
0.000446914
0.000635245
0.000833582
0.00104153
0.00125863
0.00148439
0.00171823
0.00195955
0.00220765
0.00246179
0.00272116
0.00298488
0.00325202
0.00352158
0.00379251
0.00406372
0.00433406
0.00460234
0.00486734
0.00512784
0.00538256
0.00563023
0.00586962
0.00609949
0.00631863
0.0065259
0.00672017
0.00690042
0.00706569
0.00721512
0.00734797
0.00746361
0.00756153
0.00764138
0.00770292
0.00774609
0.00777098
0.00777785
0.00776711
0.00773935
0.00769531
0.00763592
0.00756223
0.00747549
0.00737705
0.00726841
0.00715121
0.00702719
0.00689821
0.00676617
0.0066331
0.00650102
0.00637204
0.00624825
0.00613176
0.00602461
0.00592881
0.00584627
0.00577882
0.00572797
0.00569525
0.00568507
0.00570077
0.000432144
0.000374228
0.000311221
0.000241292
0.000163202
7.8927e-05
-9.56067e-06
-0.000100527
-0.000192298
-0.000283281
-0.000371995
-0.000457098
-0.000537387
-0.000611801
-0.000679407
-0.000739397
-0.000791081
-0.00083387
-0.000867271
-0.000890879
-0.000904352
-0.000907416
-0.00089985
-0.000881477
-0.000852158
-0.00081178
-0.000760266
-0.00069757
-0.000623667
-0.000538557
-0.000442264
-0.000334832
-0.000216338
-8.68767e-05
5.34188e-05
0.000204384
0.000365826
0.000537503
0.000719141
0.000910422
0.00111097
0.00132036
0.00153812
0.0017637
0.00199654
0.00223596
0.00248126
0.00273166
0.00298632
0.00324434
0.00350476
0.00376658
0.00402873
0.00429012
0.00454959
0.00480597
0.00505805
0.00530461
0.00554443
0.00577629
0.005999
0.00621138
0.00641232
0.00660073
0.00677561
0.00693601
0.00708112
0.0072102
0.00732264
0.00741796
0.00749579
0.00755593
0.0075983
0.007623
0.00763027
0.00762052
0.00759433
0.00755241
0.00749566
0.00742511
0.00734194
0.00724747
0.00714314
0.00703052
0.00691126
0.00678713
0.00665994
0.00653157
0.00640395
0.00627903
0.00615876
0.00604505
0.00593982
0.00584489
0.00576202
0.00569288
0.00563893
0.00560165
0.00558447
0.00558977
0.000578157
0.000498887
0.000421264
0.000341564
0.000256393
0.000167392
7.62693e-05
-1.56147e-05
-0.00010693
-0.000196384
-0.000282763
-0.000364962
-0.000441979
-0.000512921
-0.000577003
-0.000633541
-0.000681942
-0.000721702
-0.000752398
-0.000773678
-0.000785244
-0.000786853
-0.000778312
-0.000759456
-0.000730153
-0.000690301
-0.000639826
-0.000578679
-0.00050683
-0.000424269
-0.00033101
-0.000227085
-0.000112558
1.24897e-05
0.000147947
0.000293666
0.00044947
0.000615148
0.000790446
0.000975067
0.00116866
0.00137084
0.00158115
0.00179909
0.0020241
0.00225556
0.00249279
0.00273504
0.00298151
0.00323133
0.00348359
0.0037373
0.00399145
0.00424496
0.00449672
0.00474559
0.00499039
0.00522993
0.00546302
0.00568846
0.0059051
0.00611178
0.00630739
0.00649089
0.00666126
0.00681761
0.00695912
0.00708506
0.00719484
0.00728796
0.00736408
0.00742297
0.00746458
0.00748899
0.00749643
0.0074873
0.00746216
0.0074217
0.0073668
0.00729845
0.00721779
0.0071261
0.00702477
0.0069153
0.00679927
0.00667837
0.00655432
0.0064289
0.00630393
0.00618124
0.00606262
0.00594989
0.00584478
0.00574897
0.00566409
0.00559166
0.00553305
0.00548966
0.00546374
0.00545649
0.000731716
0.000630414
0.000537218
0.000446574
0.000352991
0.000257854
0.000162644
6.83849e-05
-2.38992e-05
-0.000113191
-0.000198529
-0.000279027
-0.000353878
-0.000422357
-0.000483828
-0.000537728
-0.000583573
-0.000620946
-0.000649502
-0.000668944
-0.000679026
-0.000679544
-0.000670332
-0.000651247
-0.00062217
-0.000583011
-0.000533704
-0.000474196
-0.000404454
-0.00032446
-0.000234219
-0.000133753
-2.31058e-05
9.76532e-05
0.000228429
0.0003691
0.00051951
0.00067947
0.000848755
0.00102709
0.00121416
0.00140959
0.00161297
0.00182384
0.00204165
0.00226583
0.00249572
0.0027306
0.00296971
0.00321221
0.00345721
0.00370377
0.0039509
0.00419756
0.00444266
0.00468508
0.00492367
0.00515726
0.00538468
0.00560477
0.00581638
0.00601835
0.00620961
0.0063891
0.00655584
0.00670892
0.00684753
0.00697095
0.00707858
0.00716994
0.00724465
0.0073025
0.00734343
0.0073675
0.00737494
0.00736612
0.00734158
0.00730202
0.00724826
0.00718127
0.00710218
0.00701219
0.00691267
0.00680506
0.00669088
0.00657173
0.00644927
0.00632521
0.00620125
0.00607911
0.00596049
0.00584706
0.00574044
0.00564219
0.00555378
0.00547659
0.00541195
0.00536113
0.00532509
0.00530383
0.000888804
0.000765257
0.000655927
0.000553516
0.000450538
0.000348173
0.000247715
0.000149895
5.54597e-05
-3.48276e-05
-0.000120236
-0.000200083
-0.000273749
-0.000340675
-0.000400364
-0.00045238
-0.000496348
-0.000531947
-0.000558903
-0.000576985
-0.000586003
-0.000585797
-0.000576225
-0.000557173
-0.000528545
-0.000490264
-0.000442266
-0.000384503
-0.000316938
-0.000239548
-0.000152325
-5.52818e-05
5.1552e-05
0.000168127
0.000294366
0.000430169
0.000575408
0.000729915
0.00089349
0.00106589
0.00124683
0.00143596
0.00163292
0.00183725
0.00204847
0.00226601
0.00248924
0.0027175
0.00295003
0.00318604
0.00342466
0.00366499
0.00390605
0.00414682
0.00438626
0.00462324
0.00485665
0.00508533
0.00530813
0.00552388
0.00573145
0.00592969
0.00611753
0.00629391
0.00645785
0.00660844
0.00674486
0.00686639
0.00697241
0.00706244
0.00713609
0.00719314
0.0072335
0.00725724
0.00726455
0.0072558
0.00723151
0.00719235
0.00713912
0.00707277
0.00699438
0.00690514
0.00680636
0.00669943
0.00658583
0.0064671
0.00634484
0.00622066
0.00609621
0.00597311
0.00585295
0.00573732
0.00562771
0.00552558
0.00543227
0.00534905
0.00527717
0.00521782
0.00517064
0.00513442
0.00104595
0.000900222
0.00077447
0.000659756
0.000546677
0.000436251
0.000329637
0.000227303
0.000129742
3.74884e-05
-4.89345e-05
-0.00012904
-0.000202386
-0.000268565
-0.000327221
-0.000378046
-0.00042077
-0.000455165
-0.000481036
-0.000498225
-0.000506591
-0.000506017
-0.000496402
-0.000477657
-0.000449711
-0.0004125
-0.00036597
-0.000310073
-0.00024477
-0.000170035
-8.58501e-05
7.78709e-06
0.000110859
0.000223336
0.000345163
0.000476262
0.00061653
0.000765826
0.000923978
0.00109077
0.00126595
0.00144921
0.00164021
0.00183853
0.00204371
0.00225522
0.00247246
0.00269479
0.0029215
0.00315181
0.00338489
0.00361985
0.00385574
0.00409157
0.0043263
0.00455883
0.00478805
0.00501281
0.00523197
0.00544438
0.00564888
0.00584435
0.00602969
0.00620384
0.00636581
0.00651469
0.00664963
0.00676991
0.00687489
0.00696405
0.00703702
0.00709354
0.00713351
0.00715697
0.00716411
0.00715526
0.00713093
0.00709176
0.00703854
0.00697218
0.00689375
0.00680439
0.00670539
0.00659809
0.00648393
0.0063644
0.00624104
0.00611543
0.00598912
0.00586366
0.00574058
0.00562135
0.00550741
0.00540011
0.00530069
0.00521029
0.00513013
0.00506134
0.00500227
0.00495052
0.00120008
0.00103242
0.000890169
0.000762825
0.000639152
0.000520056
0.000406587
0.00029898
0.0001975
0.000102479
1.42441e-05
-6.68993e-05
-0.000140671
-0.000206817
-0.000265114
-0.000315375
-0.000357438
-0.000391164
-0.000416441
-0.000433178
-0.000441291
-0.000440706
-0.000431361
-0.000413203
-0.000386181
-0.000350246
-0.000305351
-0.000251456
-0.00018852
-0.000116507
-3.53944e-05
5.48334e-05
0.000154176
0.000262623
0.000380142
0.000506678
0.000642155
0.00078646
0.000939449
0.00110094
0.00127071
0.00144849
0.00163397
0.00182676
0.00202643
0.00223249
0.00244436
0.00266144
0.00288304
0.00310841
0.00333673
0.00356716
0.00379875
0.00403053
0.00426147
0.00449049
0.00471647
0.00493829
0.00515479
0.00536481
0.00556721
0.00576084
0.00594458
0.00611737
0.00627821
0.00642616
0.00656036
0.00668004
0.00678455
0.00687337
0.00694607
0.00700238
0.00704219
0.0070655
0.00707247
0.00706342
0.00703884
0.00699934
0.00694569
0.00687879
0.00679966
0.00670943
0.00660934
0.00650072
0.00638497
0.00626355
0.00613794
0.00600967
0.00588025
0.00575117
0.00562388
0.00549981
0.00538032
0.00526668
0.00516005
0.00506147
0.00497214
0.00489317
0.00482164
0.00475405
0.00134847
0.00115924
0.00100055
0.000860406
0.000725826
0.000597625
0.000476772
0.0003633
0.00025727
0.000158826
6.81133e-05
-1.47297e-05
-8.95739e-05
-0.00015631
-0.00021485
-0.000265116
-0.000307048
-0.000340603
-0.00036575
-0.000382457
-0.000390699
-0.000390452
-0.000381695
-0.000364405
-0.000338553
-0.000304108
-0.000261032
-0.000209287
-0.000148833
-7.96302e-05
-1.64453e-06
8.51539e-05
0.000180781
0.000285245
0.000398537
0.000520631
0.000651475
0.000790982
0.000939042
0.00109551
0.00126019
0.00143286
0.00161322
0.00180094
0.0019956
0.00219674
0.00240384
0.0026163
0.00283346
0.0030546
0.00327894
0.00350562
0.00373374
0.00396234
0.00419038
0.00441679
0.00464047
0.00486028
0.00507506
0.00528366
0.00548489
0.0056776
0.00586065
0.00603297
0.00619353
0.00634134
0.00647553
0.0065953
0.00669997
0.00678898
0.00686188
0.00691837
0.00695829
0.00698163
0.00698852
0.00697926
0.00695429
0.00691423
0.00685981
0.00679191
0.00671152
0.00661975
0.00651783
0.00640705
0.00628879
0.00616447
0.00603556
0.00590353
0.00576985
0.00563598
0.00550333
0.00537327
0.00524712
0.00512608
0.00501125
0.00490359
0.00480433
0.00471456
0.00463017
0.00454656
0.00148868
0.0012783
0.00110332
0.00095033
0.000804661
0.000667065
0.000538444
0.000418657
0.000307577
0.000205174
0.000111435
2.63407e-05
-5.01327e-05
-0.000118009
-0.000177317
-0.000228097
-0.000270387
-0.000304233
-0.000329678
-0.000346756
-0.000355499
-0.000355934
-0.000348077
-0.000331938
-0.00030751
-0.000274777
-0.000233711
-0.000184281
-0.000126444
-6.01512e-05
1.46376e-05
9.79647e-05
0.000189866
0.000290375
0.000399503
0.000517248
0.000643587
0.000778466
0.000921808
0.0010735
0.00123338
0.00140127
0.00157689
0.00175995
0.00195006
0.0021468
0.00234968
0.00255811
0.00277148
0.00298907
0.00321014
0.00343384
0.0036593
0.00388553
0.00411153
0.00433622
0.0045585
0.00477722
0.00499122
0.00519932
0.00540031
0.00559302
0.00577631
0.00594904
0.00611017
0.00625867
0.00639362
0.0065142
0.00661969
0.00670948
0.0067831
0.00684019
0.00688058
0.00690421
0.00691118
0.00690176
0.00687637
0.00683559
0.00678015
0.00671088
0.00662877
0.0065349
0.00643048
0.00631679
0.0061952
0.00606709
0.00593391
0.00579711
0.00565814
0.00551841
0.00537934
0.00524224
0.00510841
0.004979
0.00485507
0.00473754
0.00462767
0.00452658
0.004429
0.0043293
0.00161846
0.00138739
0.00119636
0.00103056
0.000873719
0.000726546
0.000589895
0.000463459
0.000346943
0.000240161
0.000142946
5.51318e-05
-2.34428e-05
-9.29306e-05
-0.000153476
-0.000205227
-0.000248318
-0.000282879
-0.000309024
-0.000326853
-0.000336455
-0.000337907
-0.000331263
-0.000316556
-0.000293807
-0.000263018
-0.000224169
-0.000177227
-0.000122152
-5.88927e-05
1.26058e-05
9.24034e-05
0.000180553
0.000277106
0.000382103
0.000495567
0.000617507
0.000747897
0.000886697
0.00103383
0.00118918
0.00135257
0.0015238
0.00170258
0.00188857
0.00208139
0.00228054
0.00248551
0.00269568
0.00291038
0.00312886
0.00335032
0.00357386
0.00379853
0.00402331
0.00424715
0.00446891
0.00468746
0.00490159
0.00511011
0.0053118
0.00550545
0.00568988
0.00586393
0.0060265
0.00617654
0.00631307
0.00643522
0.00654223
0.00663345
0.00670836
0.00676657
0.00680784
0.00683209
0.00683937
0.00682993
0.00680416
0.00676261
0.00670597
0.00663507
0.00655085
0.00645442
0.00634694
0.0062297
0.00610403
0.00597133
0.00583301
0.00569052
0.00554529
0.00539875
0.00525227
0.00510717
0.00496471
0.00482604
0.00469219
0.00456406
0.00444297
0.0043301
0.00421906
0.00410321
0.00173578
0.00148449
0.00127767
0.00109917
0.000931154
0.000774314
0.000629467
0.000496146
0.000373905
0.000262414
0.00016136
7.04369e-05
-1.06414e-05
-8.21484e-05
-0.000144343
-0.000197475
-0.00024177
-0.000277434
-0.000304652
-0.000323596
-0.000334407
-0.0003372
-0.000332069
-0.000319083
-0.000298278
-0.000269669
-0.000233248
-0.000188988
-0.000136842
-7.67526e-05
-8.65289e-06
6.75306e-05
0.000151872
0.000244446
0.00034532
0.000454544
0.000572154
0.000698163
0.000832568
0.000975329
0.00112636
0.00128553
0.00145266
0.0016275
0.00180977
0.00199908
0.002195
0.00239701
0.00260455
0.00281696
0.00303351
0.00325341
0.00347577
0.00369965
0.00392403
0.00414784
0.00436996
0.00458921
0.00480439
0.00501425
0.00521757
0.0054131
0.00559961
0.00577591
0.00594084
0.0060933
0.00623225
0.00635679
0.00646609
0.00655945
0.0066363
0.00669618
0.00673883
0.0067641
0.00677203
0.00676279
0.00673677
0.00669447
0.00663656
0.00656384
0.00647725
0.00637787
0.00626686
0.0061455
0.00601512
0.0058771
0.00573286
0.00558384
0.0054315
0.00527723
0.00512244
0.00496843
0.00481647
0.00466771
0.00452318
0.00438377
0.00425089
0.00412581
0.00400106
0.003869
0.00183873
0.0015677
0.00134538
0.00115433
0.000975214
0.000808686
0.000655543
0.000515182
0.000387009
0.000270553
0.000165368
7.102e-05
-1.28986e-05
-8.67782e-05
-0.000150988
-0.000205865
-0.000251723
-0.000288849
-0.0003175
-0.000337901
-0.000350248
-0.000354705
-0.000351394
-0.000340411
-0.000321814
-0.000295635
-0.000261871
-0.000220495
-0.00017146
-0.000114699
-5.01341e-05
2.23271e-05
0.000102781
0.000191326
0.000288051
0.000393037
0.000506357
0.000628062
0.000758183
0.000896714
0.00104361
0.00119877
0.00136207
0.00153328
0.00171216
0.00189836
0.00209147
0.00229101
0.00249644
0.00270713
0.00292236
0.00314136
0.00336324
0.00358707
0.00381182
0.00403644
0.00425976
0.0044806
0.00469772
0.00490987
0.00511576
0.00531413
0.00550368
0.00568318
0.00585141
0.00600721
0.00614949
0.00627728
0.0063897
0.00648597
0.00656547
0.00662769
0.00667229
0.00669908
0.00670805
0.00669935
0.00667329
0.00663037
0.00657121
0.00649659
0.00640744
0.00630482
0.0061899
0.00606395
0.00592829
0.00578431
0.00563344
0.00547714
0.00531687
0.00515406
0.00499011
0.00482635
0.00466407
0.00450443
0.00434849
0.00419716
0.00405196
0.00391424
0.0037755
0.00362714
0.00192552
0.00163522
0.00139773
0.00119432
0.00100421
0.000828025
0.000666557
0.000519063
0.000384812
0.000263199
0.000153657
5.56275e-05
-3.14195e-05
-0.000107977
-0.000174513
-0.000231462
-0.000279216
-0.000318135
-0.000348548
-0.000370738
-0.000384946
-0.000391374
-0.000390182
-0.000381492
-0.000365379
-0.000341886
-0.000311016
-0.000272747
-0.000227026
-0.000173776
-0.000112904
-4.42979e-05
3.2158e-05
0.000116585
0.000209102
0.000309823
0.000418859
0.000536295
0.000662199
0.000796603
0.000939499
0.00109084
0.00125051
0.00141836
0.00159415
0.00177757
0.00196826
0.00216577
0.00236957
0.00257907
0.00279356
0.00301227
0.00323434
0.00345883
0.00368473
0.00391094
0.00413631
0.00435961
0.00457958
0.00479494
0.00500437
0.00520654
0.00540012
0.00558381
0.00575632
0.00591644
0.00606301
0.00619498
0.00631141
0.00641145
0.00649439
0.00655967
0.00660689
0.0066358
0.00664632
0.00663856
0.00661279
0.00656946
0.00650916
0.00643265
0.00634085
0.00623481
0.00611569
0.00598475
0.00584333
0.00569284
0.00553472
0.00537046
0.00520153
0.0050294
0.0048555
0.00468119
0.0045078
0.00433654
0.00416849
0.00400462
0.00384655
0.00369577
0.00354273
0.00337791
0.00199447
0.00168537
0.00143302
0.00121747
0.00101651
0.000830761
0.000660984
0.000506314
0.00036589
0.000238987
0.000124909
2.29875e-05
-6.74212e-05
-0.000146919
-0.000216061
-0.000275369
-0.000325319
-0.000366347
-0.000398837
-0.000423128
-0.000439508
-0.000448216
-0.000449445
-0.000443339
-0.00042999
-0.00040945
-0.000381732
-0.000346811
-0.000304628
-0.000255093
-0.000198098
-0.000133512
-6.12004e-05
1.89878e-05
0.000107203
0.000203595
0.000308309
0.000421468
0.000543178
0.000673513
0.000812505
0.000960148
0.00111638
0.00128106
0.001454
0.00163495
0.00182356
0.00201942
0.00222203
0.00243082
0.0026451
0.00286411
0.003087
0.00331285
0.00354061
0.0037692
0.00399743
0.00422406
0.0044478
0.00466731
0.00488125
0.00508822
0.00528685
0.00547574
0.00565357
0.00581904
0.00597091
0.00610807
0.00622948
0.00633422
0.00642149
0.00649066
0.00654126
0.00657297
0.00658565
0.00657936
0.0065543
0.00651087
0.00644966
0.00637138
0.00627695
0.00616738
0.00604385
0.00590763
0.00576006
0.00560257
0.00543664
0.00526379
0.00508553
0.00490337
0.00471877
0.00453317
0.00434792
0.00416431
0.00398347
0.00380642
0.00363493
0.00347063
0.00330295
0.00312142
0.00204396
0.00171652
0.00144965
0.0012222
0.00101057
0.000815364
0.000637334
0.000475487
0.00032884
0.000196555
7.78128e-05
-2.81742e-05
-0.000122145
-0.000204799
-0.00027679
-0.000338723
-0.000391152
-0.000434578
-0.000469443
-0.000496138
-0.000514995
-0.00052629
-0.000530243
-0.000527016
-0.00051672
-0.000499419
-0.000475126
-0.000443814
-0.000405413
-0.000359825
-0.000306923
-0.000246558
-0.00017857
-0.000102777
-1.89963e-05
7.29582e-05
0.000173268
0.000282096
0.000399588
0.000525861
0.000660993
0.000805016
0.000957906
0.00111958
0.00128988
0.00146858
0.0016554
0.00184995
0.00205176
0.00226027
0.00247483
0.00269468
0.002919
0.00314685
0.00337719
0.00360891
0.00384082
0.00407164
0.00430004
0.00452466
0.0047441
0.00495689
0.0051616
0.00535678
0.00554101
0.00571292
0.00587119
0.00601461
0.00614205
0.00625251
0.00634509
0.00641908
0.00647393
0.00650924
0.00652481
0.0065206
0.00649679
0.00645371
0.00639192
0.0063121
0.00621513
0.00610204
0.005974
0.00583227
0.00567825
0.00551336
0.00533915
0.00515715
0.00496893
0.00477606
0.00458007
0.00438244
0.00418461
0.00398794
0.00379363
0.00360276
0.00341728
0.00323896
0.00305622
0.00285765
0.00207245
0.00172712
0.00144607
0.00120697
0.000984867
0.000780346
0.000594146
0.000425164
0.000272287
0.000134557
1.10493e-05
-9.91299e-05
-0.000196825
-0.00028283
-0.000357891
-0.000422692
-0.00047786
-0.000523955
-0.000561482
-0.000590878
-0.000612515
-0.000626701
-0.000633681
-0.000633639
-0.000626702
-0.000612937
-0.00059236
-0.000564937
-0.000530592
-0.000489212
-0.000440652
-0.000384743
-0.000321294
-0.000250094
-0.000170925
-8.3563e-05
1.22119e-05
0.000116603
0.0002298
0.000351965
0.000483219
0.00062364
0.000773246
0.000931998
0.00109979
0.00127644
0.0014617
0.00165521
0.00185655
0.00206517
0.00228044
0.00250163
0.00272793
0.0029584
0.003192
0.00342759
0.00366396
0.00389982
0.00413381
0.0043645
0.00459043
0.0048101
0.00502198
0.00522456
0.00541633
0.00559584
0.00576168
0.00591252
0.00604714
0.00616443
0.00626341
0.00634327
0.00640335
0.00644318
0.00646247
0.0064611
0.00643919
0.00639703
0.00633509
0.00625407
0.00615479
0.00603829
0.00590572
0.00575839
0.00559767
0.00542507
0.00524214
0.00505049
0.00485175
0.00464755
0.00443949
0.00422914
0.00401802
0.00380758
0.0035991
0.00339376
0.00319368
0.00300079
0.00280251
0.00258645
0.00207843
0.00171568
0.0014208
0.00117031
0.000937937
0.000724268
0.000530014
0.000353956
0.000194862
5.16623e-05
-7.66758e-05
-0.000191149
-0.000292706
-0.000382235
-0.000460564
-0.000528456
-0.000586605
-0.000635635
-0.000676103
-0.00070849
-0.000733205
-0.000750588
-0.000760909
-0.000764371
-0.000761108
-0.000751195
-0.000734645
-0.000711419
-0.000681431
-0.000644552
-0.00060062
-0.000549438
-0.000490787
-0.000424422
-0.000350088
-0.000267525
-0.00017647
-7.66776e-05
3.20892e-05
0.000150038
0.000277336
0.000414107
0.00056042
0.000716282
0.000881637
0.00105635
0.00124022
0.00143291
0.00163403
0.00184308
0.00205946
0.00228245
0.00251124
0.0027449
0.00298239
0.00322256
0.00346418
0.00370593
0.0039464
0.00418413
0.00441759
0.00464521
0.00486539
0.00507654
0.00527706
0.0054654
0.00564004
0.00579955
0.00594259
0.00606795
0.00617453
0.00626142
0.00632785
0.00637324
0.00639721
0.00639958
0.00638036
0.00633979
0.0062783
0.00619652
0.00609528
0.00597558
0.00583859
0.00568562
0.00551808
0.00533752
0.00514553
0.0049438
0.00473402
0.0045179
0.00429713
0.00407338
0.00384827
0.00362334
0.00339998
0.00317948
0.00296414
0.00275609
0.0025417
0.00230759
0.00206047
0.00168075
0.00137238
0.00111078
0.000868371
0.000645732
0.000443558
0.000260507
9.52347e-05
-5.34358e-05
-0.000186645
-0.000305497
-0.000411036
-0.000504241
-0.00058602
-0.000657212
-0.000718575
-0.000770796
-0.000814476
-0.000850141
-0.000878237
-0.000899131
-0.000913115
-0.000920408
-0.000921152
-0.000915426
-0.000903239
-0.000884546
-0.000859248
-0.0008272
-0.000788218
-0.000742077
-0.000688527
-0.000627288
-0.000558067
-0.000480563
-0.000394472
-0.0002995
-0.000195364
-8.18064e-05
4.13879e-05
0.000174393
0.00031733
0.000470263
0.000633185
0.000806012
0.00098857
0.00118059
0.0013817
0.00159145
0.00180925
0.00203443
0.00226618
0.00250356
0.00274555
0.00299098
0.00323861
0.00348707
0.00373493
0.00398067
0.0042227
0.00445938
0.00468904
0.00490998
0.00512052
0.00531899
0.00550376
0.00567328
0.0058261
0.00596087
0.00607638
0.00617159
0.0062456
0.00629774
0.00632751
0.00633463
0.00631903
0.00628088
0.00622055
0.00613862
0.00603588
0.00591333
0.00577213
0.0056136
0.0054392
0.0052505
0.00504919
0.00483699
0.0046157
0.00438712
0.00415304
0.00391522
0.00367541
0.00343527
0.00319631
0.00295993
0.00272863
0.00250475
0.00227358
0.00202074
0.00201715
0.00162092
0.00129943
0.00102699
0.000774793
0.000543378
0.000333428
0.000143489
-2.78979e-05
-0.000182023
-0.000320131
-0.000443429
-0.000553054
-0.000650071
-0.000735471
-0.000810161
-0.000874966
-0.000930624
-0.000977787
-0.00101702
-0.0010488
-0.00107353
-0.00109151
-0.00110298
-0.00110808
-0.0011069
-0.00109944
-0.00108565
-0.00106541
-0.00103856
-0.00100489
-0.000964151
-0.000916054
-0.000860283
-0.00079651
-0.000724388
-0.000643567
-0.000553704
-0.000454466
-0.000345549
-0.000226681
-9.76336e-05
4.1773e-05
0.000191659
0.00035207
0.000522973
0.000704241
0.000895651
0.00109689
0.00130752
0.00152702
0.00175471
0.00198981
0.0022314
0.00247845
0.00272978
0.00298414
0.00324014
0.00349629
0.00375102
0.00400268
0.00424956
0.0044899
0.00472191
0.0049438
0.00515378
0.0053501
0.00553108
0.00569514
0.00584079
0.00596669
0.00607164
0.00615464
0.00621486
0.00625169
0.00626475
0.00625386
0.00621911
0.0061608
0.00607945
0.00597582
0.00585088
0.0057058
0.00554191
0.0053607
0.00516381
0.00495296
0.00473
0.00449678
0.00425523
0.00400725
0.00375472
0.00349951
0.00324343
0.00298811
0.00273507
0.00248705
0.00224661
0.00199791
0.00172553
0.00194711
0.00153483
0.00120058
0.000917597
0.000655862
0.000415882
0.00019832
1.61355e-06
-0.000175816
-0.000335367
-0.000478389
-0.000606185
-0.000719988
-0.000820946
-0.000910126
-0.000988506
-0.00105697
-0.00111632
-0.00116723
-0.00121033
-0.00124612
-0.00127501
-0.00129734
-0.00131334
-0.00132318
-0.00132693
-0.00132459
-0.00131609
-0.00130132
-0.00128008
-0.00125213
-0.0012172
-0.00117496
-0.00112506
-0.00106713
-0.00100078
-0.0009256
-0.000841207
-0.000747214
-0.000643261
-0.000529022
-0.000404204
-0.000268566
-0.00012193
3.58062e-05
0.000204663
0.00038457
0.00057536
0.000776766
0.000988405
0.00120977
0.00144023
0.00167902
0.00192524
0.00217785
0.0024357
0.00269749
0.0029618
0.00322713
0.00349183
0.0037542
0.00401245
0.00426472
0.00450912
0.00474376
0.0049667
0.00517609
0.0053701
0.00554698
0.00570511
0.00584299
0.00595927
0.00605279
0.00612259
0.00616792
0.00618826
0.00618335
0.00615314
0.00609787
0.00601801
0.00591425
0.00578754
0.00563904
0.0054701
0.00528226
0.00507718
0.0048567
0.00462273
0.00437723
0.00412224
0.00385979
0.00359191
0.0033206
0.00304783
0.00277536
0.00250486
0.0022393
0.00198148
0.00171442
0.00142156
0.00184902
0.00142116
0.00107452
0.000781298
0.000510283
0.00026196
3.69635e-05
-0.000166382
-0.000349772
-0.000514709
-0.000662648
-0.000794988
-0.00091305
-0.00101807
-0.00111118
-0.00119344
-0.00126579
-0.00132907
-0.00138402
-0.00143128
-0.0014714
-0.0015048
-0.00153184
-0.00155277
-0.00156774
-0.00157683
-0.00158004
-0.00157728
-0.00156842
-0.00155324