/*--------------------------------*- C++ -*----------------------------------*\
| =========                 |                                                 |
| \\      /  F ield         | OpenFOAM: The Open Source CFD Toolbox           |
|  \\    /   O peration     | Version:  2512                                  |
|   \\  /    A nd           | Website:  www.openfoam.com                      |
|    \\/     M anipulation  |                                                 |
\*---------------------------------------------------------------------------*/
FoamFile
{
    version     2.0;
    format      ascii;
    arch        "LSB;label=32;scalar=64";
    class       volScalarField;
    location    "0.16";
    object      p;
}
// * * * * * * * * * * * * * * * * * * * * * * * * * * * * * * * * * * * * * //

dimensions      [0 2 -2 0 0 0 0];

internalField   nonuniform List<scalar> 
10000
(
-9.99922e-10
-3.19358e-06
-3.24076e-05
-8.58723e-05
-0.000156555
-0.000238573
-0.000327219
-0.000418534
-0.000509214
-0.00059651
-0.000678166
-0.000752421
-0.000817865
-0.000873366
-0.000918068
-0.000951301
-0.000972523
-0.000981372
-0.000977634
-0.000961169
-0.000931884
-0.000889756
-0.000834841
-0.000767247
-0.000687104
-0.00059456
-0.0004898
-0.000373019
-0.00024444
-0.000104318
4.70793e-05
0.000209497
0.000382689
0.000566382
0.000760265
0.000964007
0.00117729
0.00139979
0.00163119
0.0018711
0.00211912
0.00237483
0.00263776
0.00290743
0.00318336
0.00346505
0.00375196
0.00404352
0.00433912
0.00463812
0.00493989
0.00524379
0.0055491
0.00585507
0.00616091
0.00646581
0.00676893
0.00706943
0.00736642
0.00765899
0.00794622
0.00822718
0.00850095
0.0087666
0.00902321
0.00926989
0.00950578
0.00973007
0.00994195
0.0101407
0.0103255
0.0104958
0.0106511
0.0107908
0.0109144
0.0110217
0.0111124
0.0111862
0.0112432
0.0112833
0.0113067
0.0113138
0.011305
0.0112808
0.0112422
0.01119
0.0111253
0.0110495
0.010964
0.0108707
0.0107716
0.0106691
0.0105659
0.0104653
0.0103709
0.0102869
0.0102179
0.0101689
0.0101451
0.0101463
1.50129e-06
-2.3655e-06
-2.8095e-05
-7.30339e-05
-0.000131748
-0.000200047
-0.000274306
-0.000351296
-0.000428193
-0.000502529
-0.000572258
-0.00063568
-0.000691381
-0.000738254
-0.000775422
-0.000802165
-0.000817932
-0.00082231
-0.000815007
-0.000795832
-0.000764663
-0.00072142
-0.000666079
-0.000598683
-0.000519326
-0.000428137
-0.000325263
-0.000210861
-8.51251e-05
5.17094e-05
0.000199402
0.000357723
0.000526435
0.000705273
0.000893955
0.00109219
0.00129966
0.00151604
0.00174096
0.00197409
0.00221504
0.00246341
0.00271874
0.00298054
0.00324832
0.00352159
0.00379984
0.0040825
0.00436897
0.00465865
0.00495092
0.00524514
0.00554062
0.00583663
0.0061324
0.00642718
0.00672015
0.00701049
0.00729735
0.00757986
0.00785715
0.00812834
0.00839255
0.00864889
0.00889649
0.00913452
0.00936218
0.00957872
0.00978337
0.00997543
0.0101542
0.0103192
0.0104699
0.0106058
0.0107265
0.0108318
0.0109214
0.0109951
0.011053
0.0110951
0.0111216
0.011133
0.0111295
0.0111119
0.011081
0.0110376
0.0109829
0.0109182
0.0108449
0.0107647
0.0106795
0.0105917
0.0105036
0.0104182
0.0103384
0.0102677
0.0102096
0.0101676
0.0101463
0.0101475
2.73346e-05
1.99624e-05
-5.64572e-06
-4.66678e-05
-9.88809e-05
-0.000159045
-0.000224243
-0.00029177
-0.00035918
-0.000424352
-0.000485436
-0.000540831
-0.000589227
-0.000629535
-0.000660869
-0.000682537
-0.000693987
-0.000694773
-0.000684564
-0.000663138
-0.00063035
-0.000586103
-0.000530327
-0.000463013
-0.000384225
-0.000294075
-0.000192677
-8.01689e-05
4.32716e-05
0.000177434
0.000322112
0.0004771
0.000642155
0.000817012
0.00100141
0.0011951
0.00139778
0.00160911
0.00182873
0.0020563
0.00229146
0.00253381
0.00278291
0.00303826
0.00329941
0.00356585
0.00383707
0.00411252
0.00439162
0.00467379
0.00495843
0.0052449
0.00553251
0.00582056
0.00610831
0.00639503
0.00667994
0.00696223
0.00724107
0.00751565
0.00778511
0.00804862
0.00830532
0.00855436
0.00879491
0.00902619
0.00924745
0.00945795
0.009657
0.0098439
0.0100181
0.0101789
0.010326
0.010459
0.0105775
0.0106812
0.0107699
0.0108435
0.0109021
0.0109458
0.0109747
0.0109893
0.0109899
0.0109772
0.0109521
0.0109153
0.010868
0.0108115
0.010747
0.0106763
0.0106011
0.0105236
0.0104458
0.0103703
0.0102998
0.0102371
0.0101849
0.0101463
0.0101251
0.010124
7.64586e-05
6.11932e-05
3.22265e-05
-8.54047e-06
-5.82489e-05
-0.000114301
-0.000174278
-0.000235848
-0.000296948
-0.000355737
-0.000410549
-0.000459981
-0.00050283
-0.000538055
-0.000564812
-0.000582434
-0.000590376
-0.000588208
-0.000575588
-0.000552255
-0.000518052
-0.00047288
-0.000416656
-0.00034935
-0.000271004
-0.000181695
-8.15125e-05
2.94118e-05
0.000150903
0.000282784
0.000424882
0.000577012
0.000738931
0.000910378
0.00109111
0.00128088
0.00147941
0.00168638
0.00190143
0.00212424
0.00235445
0.00259164
0.00283539
0.00308525
0.00334075
0.00360142
0.00386672
0.00413609
0.004409
0.00468488
0.00496314
0.00524315
0.00552423
0.00580568
0.0060868
0.00636687
0.00664513
0.0069208
0.00719308
0.00746117
0.00772424
0.0079815
0.0082321
0.00847523
0.00871009
0.00893594
0.00915205
0.00935772
0.00955227
0.00973504
0.00990546
0.010063
0.0102073
0.0103379
0.0104546
0.010557
0.010645
0.0107186
0.0107777
0.0108226
0.0108533
0.0108703
0.0108741
0.0108652
0.0108444
0.0108126
0.0107709
0.0107204
0.0106624
0.0105986
0.0105304
0.0104599
0.0103889
0.0103197
0.0102546
0.0101959
0.0101461
0.0101075
0.0100832
0.0100755
0.000143499
0.000116863
8.17895e-05
3.88462e-05
-1.08088e-05
-6.51062e-05
-0.000122003
-0.000179611
-0.000236204
-0.00029017
-0.000340085
-0.000384713
-0.000422965
-0.000453909
-0.000476765
-0.000490881
-0.000495743
-0.000490948
-0.000476162
-0.00045112
-0.000415641
-0.000369606
-0.000312943
-0.000245627
-0.000167679
-7.91364e-05
1.99243e-05
0.000129372
0.000249052
0.000378817
0.000518512
0.000667948
0.000826908
0.000995162
0.00117247
0.00135859
0.00155323
0.00175608
0.00196685
0.00218522
0.0024108
0.0026432
0.00288198
0.00312674
0.00337702
0.00363235
0.00389218
0.004156
0.00442325
0.00469341
0.00496586
0.00524
0.00551515
0.00579064
0.00606578
0.00633987
0.00661217
0.0068819
0.0071483
0.00741059
0.00766799
0.00791968
0.00816487
0.00840276
0.0086326
0.00885367
0.00906527
0.0092667
0.0094573
0.00963645
0.0098036
0.0099583
0.0101001
0.0102287
0.0103437
0.010445
0.0105323
0.0106058
0.0106653
0.0107111
0.0107434
0.0107625
0.0107688
0.010763
0.0107458
0.0107181
0.0106809
0.0106352
0.0105825
0.0105239
0.0104611
0.0103958
0.0103296
0.0102646
0.0102026
0.0101457
0.0100959
0.0100552
0.0100253
0.0100072
0.000223367
0.000183268
0.000140166
9.30892e-05
4.14645e-05
-1.30022e-05
-6.86673e-05
-0.000124037
-0.000177666
-0.000228233
-0.000274527
-0.000315445
-0.000350039
-0.000377494
-0.000397106
-0.000408272
-0.000410507
-0.000403432
-0.000386739
-0.000360189
-0.000323587
-0.000276798
-0.000219758
-0.000152445
-7.48569e-05
1.29791e-05
0.000110986
0.000219051
0.000337055
0.000464873
0.000602346
0.000749283
0.000905486
0.00107077
0.0012449
0.00142762
0.00161865
0.00181771
0.00202452
0.00223876
0.00246006
0.00268803
0.00292227
0.00316237
0.00340788
0.00365833
0.0039132
0.00417197
0.00443413
0.00469914
0.0049664
0.00523528
0.00550514
0.00577533
0.00604517
0.00631397
0.00658099
0.00684549
0.00710672
0.00736394
0.00761637
0.00786321
0.00810368
0.00833702
0.00856252
0.00877947
0.00898717
0.00918496
0.00937217
0.00954821
0.00971257
0.00986479
0.0100045
0.0101313
0.0102449
0.0103452
0.0104319
0.0105052
0.010565
0.0106116
0.010645
0.0106657
0.010674
0.0106707
0.0106563
0.0106319
0.0105981
0.0105563
0.0105074
0.0104528
0.0103938
0.010332
0.0102689
0.0102062
0.0101455
0.0100884
0.0100367
0.00999212
0.00995474
0.00992418
0.000311412
0.000256788
0.000204395
0.00015174
9.66157e-05
4.03648e-05
-1.56582e-05
-7.02644e-05
-0.000122321
-0.000170767
-0.000214577
-0.000252813
-0.000284658
-0.000309397
-0.000326414
-0.000335183
-0.000335261
-0.000326287
-0.000307986
-0.000280142
-0.000242574
-0.000195158
-0.000137829
-7.05497e-05
6.69313e-06
9.38654e-05
0.000190889
0.000297675
0.000414137
0.00054016
0.000675586
0.000820234
0.000973927
0.00113648
0.00130768
0.00148728
0.00167501
0.00187061
0.00207381
0.00228429
0.00250169
0.00272564
0.00295576
0.00319166
0.00343289
0.00367896
0.00392939
0.00418368
0.00444135
0.00470182
0.0049645
0.00522878
0.00549403
0.00575962
0.00602486
0.00628908
0.00655154
0.00681154
0.00706835
0.00732124
0.00756942
0.00781213
0.00804862
0.00827814
0.00849999
0.00871348
0.00891793
0.00911267
0.00929705
0.00947052
0.00963256
0.00978274
0.00992065
0.010046
0.0101584
0.0102578
0.010344
0.0104171
0.0104771
0.0105241
0.0105584
0.0105802
0.0105901
0.0105886
0.0105764
0.0105543
0.0105232
0.010484
0.0104378
0.0103858
0.0103292
0.0102694
0.0102078
0.0101458
0.0100847
0.0100259
0.00997083
0.00992093
0.00987483
0.00983069
0.000403638
0.000334115
0.000271689
0.000212514
0.000152762
9.34997e-05
3.58952e-05
-1.91776e-05
-7.08466e-05
-0.000118247
-0.000160552
-0.000196999
-0.000226892
-0.000249612
-0.000264633
-0.000271509
-0.000269857
-0.000259356
-0.000239751
-0.000210844
-0.000172485
-0.000124576
-6.70452e-05
1.59414e-07
7.70431e-05
0.000163565
0.000259667
0.000365285
0.000480333
0.000604696
0.000738233
0.000880787
0.0010322
0.00119227
0.00136079
0.00153753
0.00172226
0.00191473
0.00211466
0.00232173
0.0025356
0.00275593
0.00298237
0.00321451
0.00345191
0.0036941
0.00394062
0.004191
0.00444472
0.00470124
0.00495996
0.00522028
0.00548158
0.00574322
0.00600455
0.00626487
0.00652349
0.00677971
0.00703281
0.00728208
0.00752674
0.00776602
0.00799921
0.0082256
0.00844448
0.00865516
0.00885695
0.00904922
0.00923132
0.00940271
0.00956289
0.00971142
0.00984791
0.00997201
0.0100835
0.0101821
0.0102679
0.0103408
0.0104008
0.0104481
0.0104829
0.0105056
0.0105165
0.0105163
0.0105056
0.0104851
0.0104556
0.0104181
0.0103736
0.010323
0.0102676
0.0102086
0.0101471
0.0100844
0.0100216
0.00995978
0.00990023
0.00984409
0.00978856
0.00973051
0.000496712
0.000412367
0.000339596
0.000273263
0.00020808
0.000144938
8.48031e-05
2.82828e-05
-2.39497e-05
-7.12101e-05
-0.000112858
-0.00014828
-0.000176909
-0.000198234
-0.00021181
-0.000217259
-0.00021427
-0.000202579
-0.000181955
-0.000152223
-0.000113269
-6.50024e-05
-7.35147e-06
5.97252e-05
0.000136221
0.0002221
0.000317333
0.000421874
0.000535624
0.000658462
0.000790266
0.000930913
0.00108024
0.00123805
0.00140414
0.0015783
0.00176032
0.00194996
0.00214694
0.00235096
0.00256169
0.00277882
0.00300199
0.0032308
0.00346483
0.00370362
0.00394675
0.00419374
0.00444408
0.00469721
0.00495256
0.00520953
0.00546751
0.00572587
0.00598393
0.00624104
0.00649649
0.00674962
0.00699972
0.00724605
0.00748787
0.00772442
0.00795499
0.0081789
0.00839545
0.00860393
0.00880366
0.008994
0.00917435
0.00934414
0.0095029
0.00965017
0.00978555
0.00990872
0.0100194
0.0101175
0.0102029
0.0102755
0.0103355
0.0103829
0.010418
0.0104411
0.0104527
0.0104532
0.0104434
0.0104238
0.0103953
0.0103586
0.0103147
0.0102646
0.0102093
0.0101499
0.0100875
0.010023
0.00995743
0.00989164
0.00982677
0.00976376
0.0096985
0.00962669
0.000587874
0.000489101
0.000405911
0.000332047
0.000260917
0.000193236
0.000129835
7.11245e-05
1.75763e-05
-3.03011e-05
-7.20068e-05
-0.000107058
-0.00013502
-0.000155492
-0.000168113
-0.000172576
-0.000168626
-0.000156054
-0.000134675
-0.000104355
-6.49964e-05
-1.65083e-05
4.11725e-05
0.000108057
0.000184134
0.000269393
0.000363814
0.000467342
0.000579885
0.000701332
0.000831575
0.000970492
0.00111792
0.00127368
0.00143758
0.00160943
0.00178904
0.00197616
0.00217051
0.00237182
0.00257979
0.00279411
0.00301443
0.00324035
0.00347146
0.00370734
0.00394757
0.00419169
0.00443918
0.00468949
0.00494205
0.00519628
0.00545156
0.00570725
0.0059627
0.00621724
0.00647022
0.00672093
0.00696869
0.00721277
0.00745242
0.0076869
0.00791553
0.00813761
0.00835244
0.00855931
0.00875754
0.00894651
0.0091256
0.00929426
0.00945201
0.00959838
0.00973298
0.00985547
0.00996561
0.0100632
0.0101483
0.0102207
0.0102805
0.0103279
0.010363
0.0103863
0.0103981
0.010399
0.0103895
0.0103702
0.0103419
0.0103053
0.0102612
0.0102107
0.0101547
0.010094
0.0100296
0.00996249
0.00989332
0.00982283
0.00975205
0.00968183
0.00960681
0.00952168
0.000674854
0.000562166
0.000468683
0.000387154
0.000309738
0.000237044
0.000169842
0.000108364
5.28948e-05
3.7986e-06
-3.85519e-05
-7.37982e-05
-0.000101614
-0.000121703
-0.0001338
-0.000137672
-0.000133111
-0.000119954
-9.80827e-05
-6.73928e-05
-2.77926e-05
2.07877e-05
7.83866e-05
0.00014501
0.000220655
0.000305318
0.000398973
0.000501555
0.00061298
0.000733161
0.000861996
0.000999353
0.00114507
0.00129898
0.00146093
0.00163075
0.00180823
0.00199312
0.00218517
0.00238414
0.00258973
0.00280164
0.0030195
0.00324295
0.0034716
0.00370505
0.00394288
0.00418464
0.0044298
0.00467784
0.00492818
0.00518025
0.00543343
0.00568707
0.00594053
0.00619317
0.00644431
0.00669328
0.00693937
0.00718185
0.00741998
0.00765306
0.00788039
0.00810126
0.00831498
0.00852082
0.00871811
0.00890622
0.00908455
0.00925254
0.00940968
0.00955552
0.00968964
0.00981172
0.0099215
0.0100188
0.0101036
0.0101758
0.0102354
0.0102826
0.0103177
0.0103409
0.0103526
0.0103534
0.0103436
0.0103241
0.0102953
0.0102581
0.0102132
0.0101616
0.010104
0.0100413
0.00997424
0.00990368
0.00983026
0.00975454
0.0096775
0.00959989
0.00951529
0.00941745
0.000755741
0.000629734
0.00052622
0.000436997
0.000353119
0.000275129
0.000203738
0.000139039
8.11784e-05
3.03898e-05
-1.30849e-05
-4.9e-05
-7.71208e-05
-9.72475e-05
-0.000109202
-0.000112824
-0.000107967
-9.45179e-05
-7.23988e-05
-4.15338e-05
-1.84793e-06
4.67003e-05
0.000104121
0.000170424
0.000245625
0.000329713
0.000422641
0.000524342
0.000634748
0.000753783
0.000881346
0.0010173
0.00116148
0.00131376
0.00147401
0.00164204
0.00181766
0.00200062
0.00219071
0.00238769
0.00259127
0.00280115
0.00301697
0.00323838
0.00346501
0.00369651
0.00393243
0.00417231
0.00441567
0.00466197
0.00491065
0.00516113
0.0054128
0.005665
0.0059171
0.00616846
0.00641842
0.00666629
0.00691136
0.00715289
0.00739018
0.00762249
0.00784915
0.00806943
0.00828262
0.008488
0.0086849
0.00887267
0.00905074
0.0092185
0.00937545
0.0095211
0.00965506
0.00977698
0.00988662
0.0099838
0.0100684
0.0101404
0.0101999
0.0102468
0.0102816
0.0103045
0.0103158
0.0103161
0.0103057
0.0102854
0.0102556
0.0102172
0.0101709
0.0101175
0.0100576
0.00999222
0.00992189
0.00984735
0.00976918
0.00968787
0.00960435
0.00951931
0.00942541
0.00931558
0.000828947
0.000690269
0.000577017
0.000480161
0.000389772
0.000306323
0.00023048
0.000162232
0.000101616
4.87517e-05
3.76552e-06
-3.32027e-05
-6.2014e-05
-8.25492e-05
-9.47021e-05
-9.83775e-05
-9.35065e-05
-8.00307e-05
-5.78868e-05
-2.70181e-05
1.26059e-05
6.09947e-05
0.000118158
0.000184113
0.000258863
0.000342381
0.000434614
0.000535506
0.000644996
0.000763001
0.00088941
0.00102409
0.00116693
0.0013178
0.00147656
0.00164306
0.00181708
0.00199843
0.00218689
0.00238223
0.00258417
0.00279239
0.00300657
0.00322636
0.00345144
0.00368143
0.00391591
0.00415442
0.00439648
0.00464158
0.00488915
0.00513861
0.00538934
0.0056407
0.00589205
0.00614278
0.0063922
0.00663961
0.00688429
0.00712553
0.0073626
0.00759479
0.0078214
0.0080417
0.00825495
0.00846043
0.00865748
0.00884545
0.00902373
0.00919172
0.00934887
0.0094947
0.0096288
0.00975085
0.00986057
0.00995779
0.0100424
0.0101143
0.0101735
0.0102202
0.0102545
0.0102769
0.0102875
0.0102869
0.0102756
0.010254
0.0102228
0.0101827
0.0101345
0.0100787
0.0100161
0.00994735
0.00987319
0.00979421
0.00971093
0.00962376
0.00953363
0.00944123
0.00933837
0.00921724
0.00089313
0.000742402
0.000619758
0.000515414
0.000418525
0.000329535
0.000249083
0.000177067
0.000113417
5.81668e-05
1.13563e-05
-2.69832e-05
-5.68096e-05
-7.80656e-05
-9.07109e-05
-9.47288e-05
-9.01059e-05
-7.6818e-05
-5.48319e-05
-2.41281e-05
1.52881e-05
6.34148e-05
0.000120267
0.000185851
0.000260141
0.000343096
0.000434675
0.000534831
0.000643494
0.000760569
0.000885944
0.00101951
0.00116118
0.00131084
0.00146834
0.00163354
0.00180624
0.00198627
0.00217342
0.00236747
0.00256811
0.00277506
0.00298799
0.0032066
0.00343056
0.0036595
0.00389301
0.00413063
0.00437191
0.00461633
0.00486334
0.00511233
0.0053627
0.00561381
0.00586504
0.00611575
0.00636526
0.00661284
0.00685777
0.00709935
0.00733686
0.00756956
0.00779674
0.00801765
0.00823154
0.0084377
0.00863545
0.00882414
0.00900313
0.00917179
0.00932955
0.00947593
0.00961052
0.00973297
0.00984302
0.00994046
0.0100252
0.010097
0.010156
0.0102024
0.0102362
0.0102578
0.0102676
0.0102659
0.0102532
0.01023
0.010197
0.0101548
0.010104
0.0100454
0.00997952
0.00990705
0.00982863
0.00974484
0.00965616
0.00956296
0.00946617
0.00936652
0.00925504
0.00912329
0.000947107
0.00078493
0.000653281
0.000541632
0.000438309
0.000343761
0.000258614
0.000182684
0.00011581
5.79385e-05
9.03387e-06
-3.09464e-05
-6.20428e-05
-8.42831e-05
-9.76914e-05
-0.000102305
-9.81511e-05
-8.52366e-05
-6.35748e-05
-3.31893e-05
5.8999e-06
5.36912e-05
0.000110188
0.00017537
0.00024919
0.000331606
0.000422582
0.000522067
0.000629978
0.000746212
0.000870676
0.00100329
0.00114397
0.0012926
0.00144906
0.00161319
0.00178484
0.00196385
0.00215002
0.00234309
0.00254279
0.00274883
0.00296092
0.00317877
0.00340205
0.00363038
0.00386338
0.0041006
0.00434161
0.00458588
0.00483285
0.00508193
0.00533251
0.00558397
0.00583569
0.006087
0.00633721
0.00658559
0.00683141
0.00707398
0.00731255
0.00754639
0.00777475
0.00799686
0.00821199
0.0084194
0.00861841
0.00880834
0.00898853
0.00915831
0.00931711
0.00946442
0.00959984
0.00972301
0.00983364
0.00993149
0.0100164
0.0100883
0.0101472
0.0101931
0.0102264
0.0102472
0.0102558
0.0102527
0.0102384
0.0102133
0.0101781
0.0101334
0.0100798
0.0100178
0.00994826
0.00987164
0.0097886
0.00969971
0.00960541
0.00950604
0.00940259
0.00929581
0.00917606
0.00903431
0.000989869
0.000816823
0.000676532
0.000557789
0.00044815
0.000348076
0.000258193
0.000178254
0.000108023
4.7361e-05
-3.84292e-06
-4.56892e-05
-7.82808e-05
-0.00010173
-0.000116129
-0.000121548
-0.000118044
-0.000105672
-8.44928e-05
-5.45522e-05
-1.58737e-05
3.15275e-05
8.76238e-05
0.000152369
0.000225716
0.000307625
0.000398053
0.000496925
0.000604149
0.000719638
0.000843322
0.000975136
0.00111499
0.00126279
0.0014184
0.00158171
0.00175259
0.00193087
0.00211634
0.00230875
0.00250784
0.00271335
0.002925
0.0031425
0.00336552
0.00359369
0.00382665
0.00406397
0.0043052
0.00454984
0.0047973
0.00504702
0.00529839
0.00555079
0.00580359
0.00605611
0.00630763
0.00655743
0.00680478
0.00704897
0.00728926
0.00752485
0.007755
0.00797892
0.00819587
0.00840512
0.00860594
0.00879764
0.00897952
0.00915089
0.00931116
0.00945981
0.00959642
0.00972062
0.00983208
0.00993054
0.0100158
0.0100879
0.0101466
0.0101922
0.0102248
0.0102447
0.0102521
0.0102475
0.0102313
0.010204
0.0101663
0.0101187
0.0100618
0.00999617
0.00992251
0.0098414
0.00975345
0.00965921
0.00955911
0.00945349
0.00934338
0.00922959
0.00910188
0.0089507
0.00102059
0.000837171
0.000688571
0.000562958
0.000447152
0.000341619
0.000246998
0.000162996
8.93102e-05
2.57303e-05
-2.79208e-05
-7.18068e-05
-0.000106096
-0.000130954
-0.000146523
-0.00015291
-0.000150216
-0.000138543
-0.000117979
-8.85767e-05
-5.03725e-05
-3.41474e-06
5.22353e-05
0.000116524
0.00018941
0.000270845
0.00036076
0.000459068
0.000565682
0.000680536
0.000803578
0.00093474
0.00107394
0.00122107
0.00137605
0.00153879
0.00170915
0.00188697
0.00207203
0.00226409
0.00246292
0.00266826
0.00287986
0.0030974
0.00332058
0.00354904
0.00378242
0.00402032
0.00426228
0.00450779
0.00475627
0.00500717
0.0052599
0.00551383
0.00576831
0.00602263
0.00627608
0.00652793
0.00677745
0.0070239
0.00726652
0.0075045
0.00773704
0.00796338
0.00818276
0.00839442
0.00859762
0.00879163
0.00897569
0.00914913
0.00931132
0.00946173
0.00959992
0.00972547
0.00983804
0.00993734
0.0100232
0.0100955
0.0101542
0.0101995
0.0102314
0.0102503
0.0102564
0.01025
0.0102318
0.010202
0.0101615
0.0101107
0.0100501
0.00998056
0.00990251
0.00981662
0.0097235
0.00962369
0.00951763
0.00940568
0.00928892
0.00916824
0.00903285
0.00887273
0.00103852
0.000845165
0.000688577
0.000556301
0.000434471
0.000323581
0.00022426
0.000136165
5.89544e-05
-7.63451e-06
-6.38462e-05
-0.000109916
-0.000146066
-0.000172492
-0.000189372
-0.000196867
-0.000195129
-0.000184285
-0.000164429
-0.000135634
-9.7969e-05
-5.15152e-05
3.65502e-06
6.74878e-05
0.00013993
0.000220912
0.000310345
0.000408142
0.000514236
0.000628575
0.000751105
0.000881756
0.00102045
0.00116711
0.00132169
0.00148408
0.00165417
0.00183178
0.0020167
0.00220872
0.00240762
0.00261316
0.00282508
0.00304306
0.00326681
0.003496
0.00373028
0.00396923
0.0042124
0.00445928
0.00470931
0.00496195
0.00521661
0.00547264
0.00572937
0.0059861
0.00624209
0.00649662
0.00674895
0.00699831
0.00724389
0.00748488
0.00772045
0.00794983
0.00817225
0.00838692
0.00859306
0.0087899
0.00897667
0.00915267
0.00931725
0.00946987
0.00961003
0.00973729
0.00985126
0.00995164
0.0100383
0.010111
0.0101698
0.0102148
0.0102461
0.0102639
0.0102686
0.0102604
0.0102399
0.0102075
0.0101638
0.0101095
0.0100451
0.00997123
0.0098885
0.00979756
0.00969902
0.00959345
0.00948129
0.00936292
0.00923951
0.00911203
0.00896921
0.00880056
0.00104297
0.000840079
0.000675796
0.000537061
0.000409348
0.000293194
0.000189227
9.70482e-05
1.62764e-05
-5.33938e-05
-0.000112268
-0.000160639
-0.000198764
-0.000226874
-0.00024519
-0.000253925
-0.000253259
-0.00024333
-0.00022425
-0.000196127
-0.000159068
-0.000113166
-5.84928e-05
4.88787e-06
7.6896e-05
0.000157437
0.000246421
0.000343778
0.000449452
0.00056339
0.00068553
0.000815806
0.00095416
0.00110055
0.00125493
0.0014172
0.00158724
0.00176488
0.00194994
0.00214223
0.00234153
0.00254761
0.0027602
0.00297901
0.00320376
0.00343412
0.00366975
0.00391022
0.00415508
0.00440383
0.00465594
0.00491087
0.00516801
0.00542672
0.00568629
0.00594601
0.00620518
0.00646303
0.00671881
0.00697171
0.00722091
0.00746554
0.00770479
0.00793785
0.00816393
0.0083822
0.00859186
0.00879209
0.00898211
0.0091612
0.00932867
0.00948395
0.0096265
0.00975583
0.00987152
0.00997327
0.0100609
0.0101342
0.0101933
0.0102381
0.0102688
0.0102856
0.0102887
0.0102786
0.0102556
0.0102203
0.0101734
0.0101153
0.0100468
0.00996833
0.00988066
0.00978441
0.00968022
0.00956868
0.00945028
0.00932541
0.00919533
0.00906111
0.00891102
0.00873416
0.00103331
0.000821252
0.000649534
0.000504541
0.000371087
0.000249748
0.000141189
4.4956e-05
-3.93911e-05
-0.000112205
-0.000173823
-0.000224574
-0.000264756
-0.000294646
-0.00031451
-0.000324587
-0.000325071
-0.000316119
-0.000297878
-0.000270494
-0.000234093
-0.000188767
-0.000134598
-7.16771e-05
-1.09725e-07
8.0005e-05
0.00016859
0.000265588
0.000370939
0.000484578
0.000606443
0.000736486
0.000874675
0.00102098
0.00117536
0.00133771
0.00150791
0.00168583
0.0018713
0.00206415
0.00226417
0.00247113
0.00268475
0.00290478
0.00313094
0.0033629
0.00360031
0.00384276
0.00408978
0.00434092
0.00459565
0.00485341
0.00511359
0.00537553
0.00563852
0.00590186
0.00616483
0.00642665
0.00668653
0.00694363
0.00719709
0.00744603
0.00768961
0.00792701
0.00815739
0.00837989
0.00859365
0.00879785
0.00899169
0.0091744
0.00934529
0.00950371
0.00964908
0.00978087
0.00989864
0.0100021
0.0100909
0.0101651
0.0102246
0.0102693
0.0102994
0.0103151
0.0103167
0.0103045
0.010279
0.0102407
0.0101902
0.0101282
0.0100552
0.00997199
0.00987911
0.00977729
0.00966722
0.00954952
0.00942471
0.00929323
0.00915643
0.00901549
0.00885824
0.00867337
0.00100903
0.000788083
0.000609156
0.000458078
0.000319021
0.000192591
7.94878e-05
-2.0782e-05
-0.000108718
-0.000184711
-0.000249123
-0.000302308
-0.000344617
-0.000376374
-0.000397868
-0.000409347
-0.000411028
-0.00040311
-0.000385775
-0.000359185
-0.000323469
-0.000278733
-0.000225086
-0.000162645
-9.15211e-05
-1.18022e-05
7.64455e-05
0.000173159
0.000278268
0.000391701
0.00051341
0.00064337
0.000781563
0.000927963
0.00108251
0.00124513
0.00141571
0.00159415
0.0017803
0.001974
0.00217504
0.00238319
0.00259821
0.00281985
0.00304781
0.00328179
0.00352142
0.00376628
0.00401596
0.00426999
0.00452785
0.00478898
0.00505276
0.00531849
0.00558551
0.00585309
0.00612049
0.00638692
0.00665155
0.00691351
0.0071719
0.00742583
0.00767443
0.00791684
0.00815217
0.00837953
0.00859803
0.00880682
0.00900506
0.00919197
0.0093668
0.00952886
0.00967751
0.00981219
0.00993243
0.0100379
0.0101283
0.0102036
0.0102636
0.0103084
0.010338
0.0103527
0.0103526
0.0103383
0.0103101
0.0102686
0.0102144
0.0101482
0.0100706
0.0099823
0.00988394
0.0097763
0.00966011
0.00953604
0.00940464
0.00926642
0.0091228
0.0089751
0.00881072
0.00861797
0.000969617
0.000740035
0.000554073
0.00039705
0.000252518
0.000121091
3.48547e-06
-0.000100817
-0.000192348
-0.000271531
-0.00033876
-0.000394432
-0.000438934
-0.000472617
-0.000495782
-0.000508699
-0.000511623
-0.000504793
-0.000488413
-0.000462646
-0.000427634
-0.000383512
-0.000330417
-0.000268472
-0.000197779
-0.000118414
-3.04482e-05
6.6041e-05
0.000170977
0.0002843
0.000405979
0.000536003
0.000674355
0.000821002
0.000975891
0.00113896
0.00131014
0.00148934
0.00167643
0.00187125
0.0020736
0.00228327
0.00250003
0.00272363
0.00295379
0.00319018
0.00343244
0.00368018
0.003933
0.00419042
0.00445193
0.00471696
0.00498487
0.00525498
0.00552661
0.00579905
0.00607153
0.00634322
0.00661326
0.00688074
0.00714474
0.00740437
0.00765869
0.0079068
0.00814777
0.00838066
0.00860455
0.00881857
0.00902184
0.00921355
0.00939289
0.00955912
0.00971155
0.00984958
0.00997271
0.0100806
0.0101729
0.0102495
0.0103103
0.0103553
0.0103845
0.0103981
0.0103965
0.0103799
0.010349
0.0103042
0.0102462
0.0101756
0.0100931
0.00999938
0.00989527
0.00978156
0.00965901
0.00952833
0.00939012
0.00924497
0.00909441
0.00893985
0.00876831
0.00856771
0.000914593
0.000676596
0.000483754
0.000320895
0.00017098
3.4621e-05
-8.74525e-05
-0.000195773
-0.000290891
-0.000373268
-0.000443344
-0.000501548
-0.000548282
-0.000583912
-0.000608769
-0.00062316
-0.000627376
-0.000621675
-0.000606271
-0.000581343
-0.00054706
-0.000503588
-0.000451071
-0.000389623
-0.000319333
-0.000240284
-0.00015256
-5.62466e-05
4.85877e-05
0.000161901
0.000283674
0.000413894
0.000552537
0.000699572
0.000854965
0.00101868
0.00119068
0.00137087
0.00155914
0.00175533
0.00195927
0.00217077
0.0023896
0.00261551
0.00284822
0.00308741
0.00333272
0.00358378
0.00384021
0.00410152
0.00436719
0.00463663
0.00490922
0.00518429
0.00546115
0.00573907
0.00601725
0.00629485
0.00657095
0.00684464
0.00711497
0.007381
0.00764176
0.00789629
0.0081436
0.00838272
0.00861271
0.00883264
0.00904161
0.00923874
0.00942319
0.00959415
0.00975089
0.00989277
0.0100193
0.01013
0.0102246
0.0103028
0.0103646
0.01041
0.0104389
0.0104516
0.0104483
0.0104296
0.0103958
0.0103476
0.0102856
0.0102103
0.0101227
0.0100234
0.00991326
0.0097932
0.00966401
0.00952645
0.00938119
0.00922888
0.00907118
0.00890962
0.00873082
0.00852231
0.000843487
0.000597268
0.000397686
0.000229073
7.38249e-05
-6.74243e-05
-0.000193927
-0.000306242
-0.000404944
-0.000490532
-0.000563484
-0.000624241
-0.000673216
-0.000710803
-0.000737374
-0.000753276
-0.000758816
-0.000754261
-0.000739845
-0.000715779
-0.000682262
-0.00063947
-0.000587536
-0.000526567
-0.000456657
-0.000377901
-0.00029039
-0.000194204
-8.93953e-05
2.40061e-05
0.000145981
0.000276507
0.000415559
0.000563121
0.000719183
0.000883735
0.00105674
0.00123813
0.00142781
0.00162562
0.00183143
0.00204504
0.00226625
0.0024948
0.00273041
0.00297276
0.00322153
0.00347636
0.00373685
0.00400252
0.00427284
0.00454723
0.00482505
0.00510566
0.00538835
0.00567237
0.0059569
0.00624104
0.00652389
0.00680448
0.00708186
0.00735502
0.00762296
0.00788464
0.00813904
0.00838515
0.00862196
0.00884853
0.0090639
0.00926712
0.00945731
0.00963361
0.00979524
0.00994153
0.0100719
0.0101859
0.0102831
0.0103634
0.0104265
0.0104724
0.0105012
0.0105131
0.0105083
0.0104874
0.0104507
0.010399
0.0103327
0.0102526
0.0101596
0.0100544
0.00993803
0.00981133
0.00967519
0.00953044
0.00937783
0.0092181
0.00905301
0.00888424
0.008698
0.00848142
0.000755868
0.000501561
0.00029534
0.000121036
-3.95061e-05
-0.000185611
-0.000316511
-0.000432808
-0.00053511
-0.00062393
-0.000699762
-0.000763068
-0.00081429
-0.000853854
-0.000882168
-0.000899601
-0.000906474
-0.000903073
-0.000889666
-0.000866497
-0.000833776
-0.000791671
-0.00074031
-0.000679804
-0.000610262
-0.000531786
-0.000444461
-0.000348349
-0.000243492
-0.00012992
-7.6592e-06
0.000123264
0.000262835
0.000411062
0.000567955
0.000733517
0.000907722
0.00109051
0.0012818
0.00148147
0.00168939
0.0019054
0.00212927
0.00236075
0.00259958
0.00284546
0.00309809
0.00335712
0.00362212
0.00389262
0.00416809
0.00444793
0.00473155
0.00501827
0.0053074
0.00559813
0.00588963
0.00618098
0.00647125
0.00675947
0.00704463
0.00732567
0.00760155
0.00787116
0.00813342
0.00838729
0.00863172
0.00886569
0.00908819
0.00929823
0.00949484
0.00967714
0.00984429
0.00999558
0.0101304
0.0102481
0.0103485
0.0104311
0.0104958
0.0105426
0.0105715
0.0105827
0.0105765
0.0105534
0.0105138
0.0104583
0.0103877
0.0103026
0.0102039
0.0100926
0.00996969
0.00983602
0.00969258
0.0095403
0.00938001
0.00921252
0.00903976
0.0088635
0.00866954
0.0084446
0.000651321
0.000389
0.000176196
-3.74926e-06
-0.000169545
-0.000320484
-0.000455779
-0.000576067
-0.000681981
-0.000774036
-0.00085274
-0.000918593
-0.000972077
-0.00101365
-0.00104372
-0.00106269
-0.0010709
-0.00106867
-0.00105631
-0.00103406
-0.00100215
-0.000960719
-0.000909919
-0.000849873
-0.000780698
-0.00070249
-0.000615318
-0.00051923
-0.000414266
-0.000300464
-0.000177854
-4.64513e-05
9.37489e-05
0.000242773
0.000400646
0.000567373
0.000742941
0.000927306
0.00112041
0.00132216
0.00153244
0.00175107
0.00197786
0.00221256
0.00245493
0.00270471
0.00296158
0.0032252
0.00349515
0.00377093
0.00405202
0.00433785
0.00462781
0.00492123
0.00521737
0.00551543
0.00581453
0.00611376
0.00641217
0.00670874
0.00700242
0.00729212
0.0075767
0.00785504
0.00812599
0.00838844
0.0086413
0.00888349
0.00911392
0.00933153
0.00953532
0.00972434
0.0098977
0.0100546
0.0101944
0.0103165
0.0104205
0.0105059
0.0105726
0.0106205
0.0106497
0.0106605
0.010653
0.0106277
0.0105851
0.0105258
0.0104506
0.0103603
0.0102559
0.0101382
0.0100083
0.00986735
0.00971624
0.00955604
0.00938767
0.00921205
0.00903123