/*--------------------------------*- C++ -*----------------------------------*\
| =========                 |                                                 |
| \\      /  F ield         | OpenFOAM: The Open Source CFD Toolbox           |
|  \\    /   O peration     | Version:  2512                                  |
|   \\  /    A nd           | Website:  www.openfoam.com                      |
|    \\/     M anipulation  |                                                 |
\*---------------------------------------------------------------------------*/
FoamFile
{
    version     2.0;
    format      ascii;
    arch        "LSB;label=32;scalar=64";
    class       volVectorField;
    location    "0.16";
    object      U;
}
// * * * * * * * * * * * * * * * * * * * * * * * * * * * * * * * * * * * * * //

dimensions      [0 1 -1 0 0 0 0];

internalField   nonuniform List<vector> 
10000
(
(2.96748e-06 -2.9279e-06 0)
(1.12708e-05 -5.35473e-06 0)
(2.11193e-05 -4.86877e-06 0)
(2.67517e-05 -2.78961e-06 0)
(2.54153e-05 -1.4382e-07 0)
(1.6219e-05 2.58051e-06 0)
(-9.46825e-07 5.21163e-06 0)
(-2.581e-05 7.66849e-06 0)
(-5.79263e-05 9.90516e-06 0)
(-9.67303e-05 1.19173e-05 0)
(-0.00014162 1.37113e-05 0)
(-0.00019199 1.52913e-05 0)
(-0.000247219 1.66736e-05 0)
(-0.000306717 1.78721e-05 0)
(-0.000369925 1.8893e-05 0)
(-0.0004363 1.97504e-05 0)
(-0.000505335 2.04588e-05 0)
(-0.000576566 2.10257e-05 0)
(-0.00064955 2.14624e-05 0)
(-0.000723875 2.17837e-05 0)
(-0.000799167 2.19974e-05 0)
(-0.000875076 2.21099e-05 0)
(-0.000951277 2.21345e-05 0)
(-0.00102747 2.20821e-05 0)
(-0.00110339 2.19547e-05 0)
(-0.00117876 2.17549e-05 0)
(-0.00125336 2.149e-05 0)
(-0.00132697 2.11674e-05 0)
(-0.00139937 2.07904e-05 0)
(-0.00147038 2.03596e-05 0)
(-0.00153981 1.98783e-05 0)
(-0.00160749 1.93502e-05 0)
(-0.00167326 1.87766e-05 0)
(-0.00173695 1.81581e-05 0)
(-0.00179842 1.7498e-05 0)
(-0.00185751 1.68009e-05 0)
(-0.00191409 1.60662e-05 0)
(-0.00196802 1.52895e-05 0)
(-0.00201915 1.4469e-05 0)
(-0.00206734 1.36081e-05 0)
(-0.00211248 1.27112e-05 0)
(-0.00215442 1.17798e-05 0)
(-0.00219304 1.08119e-05 0)
(-0.0022282 9.80521e-06 0)
(-0.0022598 8.75977e-06 0)
(-0.00228769 7.67768e-06 0)
(-0.00231177 6.56076e-06 0)
(-0.00233191 5.40997e-06 0)
(-0.00234802 4.22683e-06 0)
(-0.00235999 3.01357e-06 0)
(-0.00236772 1.77193e-06 0)
(-0.00237111 5.03079e-07 0)
(-0.0023701 -7.91061e-07 0)
(-0.00236461 -2.10701e-06 0)
(-0.00235457 -3.44039e-06 0)
(-0.00233995 -4.78689e-06 0)
(-0.00232072 -6.14247e-06 0)
(-0.00229684 -7.50317e-06 0)
(-0.00226833 -8.86457e-06 0)
(-0.00223519 -1.02208e-05 0)
(-0.00219747 -1.15649e-05 0)
(-0.00215521 -1.28904e-05 0)
(-0.0021085 -1.41916e-05 0)
(-0.00205744 -1.54626e-05 0)
(-0.00200215 -1.6696e-05 0)
(-0.00194278 -1.78836e-05 0)
(-0.00187949 -1.90168e-05 0)
(-0.00181249 -2.00874e-05 0)
(-0.001742 -2.10882e-05 0)
(-0.00166828 -2.20123e-05 0)
(-0.00159159 -2.28518e-05 0)
(-0.00151225 -2.35983e-05 0)
(-0.00143059 -2.42427e-05 0)
(-0.00134695 -2.47768e-05 0)
(-0.00126173 -2.51935e-05 0)
(-0.00117532 -2.54861e-05 0)
(-0.00108816 -2.5648e-05 0)
(-0.00100069 -2.56725e-05 0)
(-0.000913394 -2.55529e-05 0)
(-0.000826754 -2.52828e-05 0)
(-0.000741283 -2.4856e-05 0)
(-0.000657504 -2.42669e-05 0)
(-0.000575957 -2.35116e-05 0)
(-0.000497189 -2.25877e-05 0)
(-0.000421759 -2.14923e-05 0)
(-0.00035023 -2.02218e-05 0)
(-0.000283168 -1.87731e-05 0)
(-0.000221138 -1.71444e-05 0)
(-0.000164699 -1.53353e-05 0)
(-0.000114395 -1.3347e-05 0)
(-7.07493e-05 -1.11826e-05 0)
(-3.42453e-05 -8.84971e-06 0)
(-5.30595e-06 -6.36346e-06 0)
(1.57405e-05 -3.75365e-06 0)
(2.87264e-05 -1.07938e-06 0)
(3.37517e-05 1.54094e-06 0)
(3.1341e-05 3.87961e-06 0)
(2.28042e-05 5.48513e-06 0)
(1.13186e-05 5.49521e-06 0)
(2.70022e-06 2.70346e-06 0)
(5.12609e-06 -1.12038e-05 0)
(1.72671e-05 -1.7484e-05 0)
(2.72251e-05 -1.28188e-05 0)
(2.58557e-05 -1.73166e-06 0)
(7.91641e-06 1.23241e-05 0)
(-2.8979e-05 2.74043e-05 0)
(-8.5579e-05 4.24788e-05 0)
(-0.000161743 5.69571e-05 0)
(-0.00025668 7.05277e-05 0)
(-0.000369245 8.30178e-05 0)
(-0.000498093 9.43464e-05 0)
(-0.00064174 0.000104505 0)
(-0.000798677 0.000113502 0)
(-0.000967406 0.000121373 0)
(-0.00114644 0.000128171 0)
(-0.00133436 0.000133952 0)
(-0.00152982 0.000138773 0)
(-0.00173151 0.000142693 0)
(-0.00193825 0.000145778 0)
(-0.00214888 0.000148087 0)
(-0.00236235 0.000149675 0)
(-0.00257767 0.000150593 0)
(-0.00279393 0.000150894 0)
(-0.00301026 0.000150627 0)
(-0.00322588 0.000149832 0)
(-0.00344005 0.000148545 0)
(-0.00365207 0.000146801 0)
(-0.00386131 0.000144633 0)
(-0.00406716 0.000142066 0)
(-0.00426906 0.000139124 0)
(-0.00446647 0.000135828 0)
(-0.00465888 0.000132197 0)
(-0.00484582 0.000128242 0)
(-0.00502682 0.000123977 0)
(-0.00520144 0.000119413 0)
(-0.00536924 0.000114561 0)
(-0.00552982 0.00010943 0)
(-0.00568277 0.000104022 0)
(-0.00582768 9.83398e-05 0)
(-0.00596418 9.23894e-05 0)
(-0.00609188 8.61774e-05 0)
(-0.00621041 7.97085e-05 0)
(-0.00631941 7.29868e-05 0)
(-0.00641852 6.60166e-05 0)
(-0.00650739 5.88029e-05 0)
(-0.00658568 5.13518e-05 0)
(-0.00665306 4.36708e-05 0)
(-0.00670923 3.57691e-05 0)
(-0.00675388 2.76584e-05 0)
(-0.00678674 1.93522e-05 0)
(-0.00680753 1.08644e-05 0)
(-0.00681602 2.21033e-06 0)
(-0.006812 -6.59206e-06 0)
(-0.00679529 -1.55215e-05 0)
(-0.00676573 -2.45531e-05 0)
(-0.00672322 -3.36601e-05 0)
(-0.00666766 -4.28142e-05 0)
(-0.00659904 -5.19851e-05 0)
(-0.00651736 -6.11391e-05 0)
(-0.00642269 -7.02395e-05 0)
(-0.00631513 -7.92468e-05 0)
(-0.00619487 -8.81202e-05 0)
(-0.00606212 -9.68174e-05 0)
(-0.0059172 -0.000105293 0)
(-0.00576044 -0.000113501 0)
(-0.00559228 -0.00012139 0)
(-0.0054132 -0.000128912 0)
(-0.00522378 -0.000136015 0)
(-0.00502464 -0.000142647 0)
(-0.0048165 -0.000148757 0)
(-0.00460014 -0.000154292 0)
(-0.00437641 -0.000159201 0)
(-0.00414623 -0.000163432 0)
(-0.0039106 -0.000166935 0)
(-0.00367059 -0.000169662 0)
(-0.00342732 -0.000171565 0)
(-0.00318199 -0.000172601 0)
(-0.00293584 -0.000172726 0)
(-0.0026902 -0.000171902 0)
(-0.0024464 -0.000170094 0)
(-0.00220586 -0.000167268 0)
(-0.00197002 -0.000163396 0)
(-0.00174035 -0.000158454 0)
(-0.00151834 -0.000152425 0)
(-0.00130552 -0.000145296 0)
(-0.00110339 -0.00013706 0)
(-0.00091348 -0.00012772 0)
(-0.000737269 -0.000117286 0)
(-0.000576209 -0.000105781 0)
(-0.000431681 -9.32476e-05 0)
(-0.000304963 -7.97537e-05 0)
(-0.000197182 -6.54063e-05 0)
(-0.000109242 -5.03741e-05 0)
(-4.17253e-05 -3.49235e-05 0)
(5.27493e-06 -1.948e-05 0)
(3.2385e-05 -4.73722e-06 0)
(4.12478e-05 8.17206e-06 0)
(3.503e-05 1.73685e-05 0)
(1.98028e-05 1.98293e-05 0)
(5.47203e-06 1.13019e-05 0)
(4.47852e-06 -2.06174e-05 0)
(1.22161e-05 -2.73318e-05 0)
(1.11214e-05 -1.1843e-05 0)
(-8.53825e-06 1.71609e-05 0)
(-5.27727e-05 5.32641e-05 0)
(-0.000124641 9.24278e-05 0)
(-0.000225415 0.000132093 0)
(-0.00035508 0.000170719 0)
(-0.000512751 0.000207348 0)
(-0.000696969 0.000241401 0)
(-0.00090588 0.000272587 0)
(-0.00113743 0.000300758 0)
(-0.00138946 0.000325877 0)
(-0.00165974 0.000347995 0)
(-0.00194609 0.000367204 0)
(-0.00224637 0.00038362 0)
(-0.00255851 0.000397388 0)
(-0.00288053 0.000408654 0)
(-0.00321056 0.000417571 0)
(-0.00354683 0.000424295 0)
(-0.00388767 0.000428972 0)
(-0.00423152 0.000431739 0)
(-0.00457692 0.000432734 0)
(-0.00492251 0.000432083 0)
(-0.00526703 0.000429901 0)
(-0.00560927 0.000426293 0)
(-0.00594812 0.000421356 0)
(-0.00628255 0.000415176 0)
(-0.00661158 0.000407829 0)
(-0.00693429 0.000399384 0)
(-0.00724981 0.000389901 0)
(-0.00755731 0.000379433 0)
(-0.00785602 0.000368022 0)
(-0.00814517 0.000355705 0)
(-0.00842405 0.000342515 0)
(-0.00869196 0.000328482 0)
(-0.00894823 0.00031363 0)
(-0.0091922 0.000297977 0)
(-0.00942324 0.00028154 0)
(-0.00964073 0.000264336 0)
(-0.00984405 0.000246379 0)
(-0.0100326 0.000227684 0)
(-0.0102058 0.000208265 0)
(-0.0103632 0.000188141 0)
(-0.0105041 0.000167331 0)
(-0.010628 0.000145855 0)
(-0.0107344 0.000123735 0)
(-0.0108228 0.000100999 0)
(-0.0108928 7.76819e-05 0)
(-0.0109439 5.38217e-05 0)
(-0.0109757 2.94609e-05 0)
(-0.0109879 4.64651e-06 0)
(-0.0109802 -2.0567e-05 0)
(-0.0109522 -4.61179e-05 0)
(-0.0109037 -7.19376e-05 0)
(-0.0108346 -9.79511e-05 0)
(-0.0107448 -0.000124077 0)
(-0.0106343 -0.000150226 0)
(-0.010503 -0.000176303 0)
(-0.0103511 -0.000202204 0)
(-0.0101789 -0.000227821 0)
(-0.00998646 -0.000253038 0)
(-0.00977433 -0.000277734 0)
(-0.00954294 -0.000301781 0)
(-0.00929286 -0.000325048 0)
(-0.00902479 -0.000347398 0)
(-0.00873951 -0.000368691 0)
(-0.00843793 -0.000388784 0)
(-0.00812105 -0.000407532 0)
(-0.00779 -0.00042479 0)
(-0.00744602 -0.000440413 0)
(-0.00709046 -0.000454255 0)
(-0.00672478 -0.000466174 0)
(-0.00635054 -0.000476032 0)
(-0.00596943 -0.000483694 0)
(-0.00558321 -0.000489031 0)
(-0.00519377 -0.000491919 0)
(-0.00480305 -0.000492243 0)
(-0.00441311 -0.000489896 0)
(-0.00402606 -0.000484784 0)
(-0.00364409 -0.000476822 0)
(-0.00326943 -0.000465939 0)
(-0.00290438 -0.000452077 0)
(-0.00255123 -0.000435194 0)
(-0.00221233 -0.000415269 0)
(-0.00188998 -0.000392303 0)
(-0.00158648 -0.000366321 0)
(-0.00130408 -0.000337386 0)
(-0.00104493 -0.000305601 0)
(-0.000811038 -0.000271131 0)
(-0.000604239 -0.00023422 0)
(-0.000426087 -0.000195235 0)
(-0.000277767 -0.000154713 0)
(-0.000159939 -0.000113449 0)
(-7.25386e-05 -7.26271e-05 0)
(-1.44947e-05 -3.40169e-05 0)
(1.65687e-05 -2.76955e-07 0)
(2.48103e-05 2.46526e-05 0)
(1.73963e-05 3.50554e-05 0)
(5.45893e-06 2.27496e-05 0)
(2.58086e-06 -2.5969e-05 0)
(1.46922e-06 -2.58048e-05 0)
(-1.75253e-05 7.86218e-06 0)
(-6.28225e-05 6.23539e-05 0)
(-0.000140002 0.000128543 0)
(-0.000252303 0.000200141 0)
(-0.000401083 0.000272994 0)
(-0.000586356 0.000344357 0)
(-0.000807155 0.000412443 0)
(-0.00106177 0.000476146 0)
(-0.00134804 0.000534798 0)
(-0.00166347 0.000588043 0)
(-0.00200542 0.000635753 0)
(-0.00237112 0.000677937 0)
(-0.00275783 0.000714711 0)
(-0.00316281 0.00074626 0)
(-0.00358343 0.000772811 0)
(-0.00401711 0.000794613 0)
(-0.00446143 0.000811935 0)
(-0.00491405 0.000825048 0)
(-0.00537279 0.000834218 0)
(-0.00583558 0.000839702 0)
(-0.00630047 0.000841748 0)
(-0.00676563 0.000840586 0)
(-0.00722936 0.000836434 0)
(-0.00769005 0.000829492 0)
(-0.00814621 0.000819944 0)
(-0.00859641 0.000807952 0)
(-0.00903934 0.000793664 0)
(-0.00947373 0.000777212 0)
(-0.00989841 0.000758714 0)
(-0.0103122 0.000738269 0)
(-0.0107142 0.000715967 0)
(-0.0111032 0.000691885 0)
(-0.0114783 0.000666086 0)
(-0.0118385 0.000638629 0)
(-0.0121829 0.00060956 0)
(-0.0125107 0.000578924 0)
(-0.0128209 0.000546758 0)
(-0.0131128 0.000513099 0)
(-0.0133855 0.000477977 0)
(-0.0136382 0.000441423 0)
(-0.0138701 0.00040347 0)
(-0.0140806 0.000364156 0)
(-0.0142688 0.000323521 0)
(-0.0144341 0.000281608 0)
(-0.0145757 0.000238465 0)
(-0.0146932 0.000194151 0)
(-0.0147857 0.000148732 0)
(-0.0148528 0.000102283 0)
(-0.014894 5.4889e-05 0)
(-0.0149088 6.64549e-06 0)
(-0.0148967 -4.234e-05 0)
(-0.0148575 -9.19471e-05 0)
(-0.0147909 -0.000142043 0)
(-0.0146966 -0.000192483 0)
(-0.0145745 -0.000243108 0)
(-0.0144247 -0.000293748 0)
(-0.0142471 -0.000344215 0)
(-0.014042 -0.000394313 0)
(-0.0138097 -0.000443832 0)
(-0.0135505 -0.000492551 0)
(-0.0132649 -0.000540235 0)
(-0.0129537 -0.000586643 0)
(-0.0126176 -0.000631519 0)
(-0.0122576 -0.000674604 0)
(-0.0118747 -0.00071563 0)
(-0.01147 -0.000754325 0)
(-0.0110451 -0.000790414 0)
(-0.0106013 -0.000823619 0)
(-0.0101404 -0.000853663 0)
(-0.00966404 -0.000880269 0)
(-0.00917429 -0.000903169 0)
(-0.00867319 -0.0009221 0)
(-0.00816296 -0.000936806 0)
(-0.00764596 -0.000947044 0)
(-0.00712465 -0.000952583 0)
(-0.00660164 -0.000953207 0)
(-0.0060796 -0.000948719 0)
(-0.00556132 -0.000938943 0)
(-0.00504968 -0.000923727 0)
(-0.00454761 -0.000902947 0)
(-0.00405808 -0.000876505 0)
(-0.0035841 -0.000844339 0)
(-0.00312869 -0.000806427 0)
(-0.00269484 -0.000762795 0)
(-0.0022855 -0.000713525 0)
(-0.0019035 -0.000658771 0)
(-0.00155156 -0.000598779 0)
(-0.00123218 -0.000533914 0)
(-0.000947601 -0.000464704 0)
(-0.000699686 -0.000391899 0)
(-0.000489802 -0.000316566 0)
(-0.000318656 -0.000240213 0)
(-0.000186083 -0.000164983 0)
(-9.07904e-05 -9.39269e-05 0)
(-3.00612e-05 -3.13912e-05 0)
(6.40273e-07 1.65508e-05 0)
(8.48027e-06 4.14875e-05 0)
(3.89151e-06 3.13132e-05 0)
(1.48428e-07 -2.45822e-05 0)
(-1.22246e-05 -7.74723e-06 0)
(-5.33615e-05 5.22441e-05 0)
(-0.000128994 0.000139634 0)
(-0.000243619 0.000242888 0)
(-0.000400134 0.000353802 0)
(-0.000599707 0.000466634 0)
(-0.000842202 0.00057743 0)
(-0.00112645 0.000683537 0)
(-0.00145056 0.000783201 0)
(-0.00181207 0.000875317 0)
(-0.00220818 0.000959266 0)
(-0.00263584 0.00103475 0)
(-0.0030919 0.00110171 0)
(-0.00357313 0.00116027 0)
(-0.00407635 0.00121065 0)
(-0.00459842 0.00125317 0)
(-0.0051363 0.00128818 0)
(-0.00568707 0.00131607 0)
(-0.00624794 0.00133723 0)
(-0.00681624 0.00135208 0)
(-0.00738946 0.001361 0)
(-0.00796522 0.00136438 0)
(-0.0085413 0.00136256 0)
(-0.00911557 0.0013559 0)
(-0.00968607 0.0013447 0)
(-0.0102509 0.00132926 0)
(-0.0108084 0.00130983 0)
(-0.0113568 0.00128664 0)
(-0.0118946 0.00125992 0)
(-0.0124203 0.00122985 0)
(-0.0129326 0.00119659 0)
(-0.01343 0.00116029 0)
(-0.0139113 0.00112108 0)
(-0.0143752 0.00107906 0)
(-0.0148207 0.00103434 0)
(-0.0152465 0.000986986 0)
(-0.0156515 0.00093708 0)
(-0.0160347 0.000884689 0)
(-0.016395 0.000829873 0)
(-0.0167314 0.000772689 0)
(-0.017043 0.000713194 0)
(-0.0173288 0.000651447 0)
(-0.0175878 0.000587509 0)
(-0.0178192 0.00052145 0)
(-0.0180221 0.000453345 0)
(-0.0181957 0.000383278 0)
(-0.0183393 0.000311347 0)
(-0.018452 0.000237663 0)
(-0.0185332 0.000162349 0)
(-0.0185824 8.55452e-05 0)
(-0.0185988 7.40845e-06 0)
(-0.0185821 -7.18849e-05 0)
(-0.0185319 -0.000152139 0)
(-0.0184478 -0.00023314 0)
(-0.0183295 -0.000314651 0)
(-0.0181771 -0.000396419 0)
(-0.0179904 -0.000478165 0)
(-0.0177697 -0.000559592 0)
(-0.017515 -0.000640383 0)
(-0.0172268 -0.0007202 0)
(-0.0169057 -0.000798688 0)
(-0.0165522 -0.000875475 0)
(-0.0161671 -0.000950171 0)
(-0.0157516 -0.00102237 0)
(-0.0153067 -0.00109166 0)
(-0.0148337 -0.00115761 0)
(-0.0143341 -0.00121979 0)
(-0.0138097 -0.00127776 0)
(-0.0132622 -0.00133108 0)
(-0.0126937 -0.0013793 0)
(-0.0121064 -0.001422 0)
(-0.0115027 -0.00145875 0)
(-0.010885 -0.00148912 0)
(-0.0102562 -0.00151271 0)
(-0.00961903 -0.00152915 0)
(-0.00897657 -0.00153807 0)
(-0.00833193 -0.00153913 0)
(-0.00768839 -0.00153203 0)
(-0.00704932 -0.00151651 0)
(-0.00641818 -0.00149232 0)
(-0.0057985 -0.00145929 0)
(-0.00519387 -0.00141727 0)
(-0.00460788 -0.00136621 0)
(-0.00404414 -0.00130608 0)
(-0.00350619 -0.00123697 0)
(-0.00299752 -0.00115904 0)
(-0.00252146 -0.0010726 0)
(-0.00208118 -0.000978068 0)
(-0.00167957 -0.000876099 0)
(-0.00131918 -0.000767581 0)
(-0.00100212 -0.000653749 0)
(-0.000729913 -0.000536298 0)
(-0.000503347 -0.000417551 0)
(-0.000322274 -0.000300692 0)
(-0.000185395 -0.000190085 0)
(-8.99912e-05 -9.17065e-05 0)
(-3.16126e-05 -1.36156e-05 0)
(-3.85295e-06 3.33894e-05 0)
(1.65094e-06 3.39617e-05 0)
(-2.47845e-06 -1.55319e-05 0)
(-2.7226e-05 2.92193e-05 0)
(-9.27669e-05 0.000124557 0)
(-0.000201526 0.000252493 0)
(-0.000356333 0.000399674 0)
(-0.000559461 0.000556257 0)
(-0.000811634 0.000715096 0)
(-0.00111234 0.000871139 0)
(-0.00146015 0.00102085 0)
(-0.0018529 0.00116181 0)
(-0.00228788 0.00129247 0)
(-0.002762 0.00141187 0)
(-0.00327189 0.00151952 0)
(-0.00381404 0.00161527 0)
(-0.00438487 0.0016992 0)
(-0.00498081 0.00177159 0)
(-0.00559831 0.0018328 0)
(-0.00623393 0.0018833 0)
(-0.00688434 0.00192361 0)
(-0.00754633 0.00195425 0)
(-0.00821685 0.00197577 0)
(-0.00889299 0.00198872 0)
(-0.009572 0.00199361 0)
(-0.0102513 0.00199096 0)
(-0.0109283 0.00198123 0)
(-0.0116009 0.00196487 0)
(-0.0122667 0.00194228 0)
(-0.0129238 0.00191385 0)
(-0.0135701 0.00187991 0)
(-0.0142039 0.00184076 0)
(-0.0148233 0.00179669 0)
(-0.0154268 0.00174792 0)
(-0.0160126 0.00169468 0)
(-0.0165794 0.00163715 0)
(-0.0171257 0.0015755 0)
(-0.0176499 0.00150987 0)
(-0.0181509 0.00144038 0)
(-0.0186273 0.00136716 0)
(-0.0190779 0.00129029 0)
(-0.0195013 0.00120988 0)
(-0.0198965 0.00112601 0)
(-0.0202622 0.00103878 0)
(-0.0205975 0.000948284 0)
(-0.0209011 0.000854608 0)
(-0.021172 0.000757861 0)
(-0.0214093 0.000658158 0)
(-0.021612 0.00055563 0)
(-0.0217792 0.000450424 0)
(-0.0219101 0.000342704 0)
(-0.0220038 0.000232654 0)
(-0.0220597 0.000120483 0)
(-0.0220772 6.4208e-06 0)
(-0.0220557 -0.000109272 0)
(-0.0219947 -0.000226309 0)
(-0.0218939 -0.000344378 0)
(-0.021753 -0.000463135 0)
(-0.021572 -0.000582208 0)
(-0.0213509 -0.000701194 0)
(-0.0210897 -0.000819663 0)
(-0.0207889 -0.000937155 0)
(-0.0204487 -0.00105318 0)
(-0.02007 -0.00116723 0)
(-0.0196534 -0.00127876 0)
(-0.0192 -0.00138721 0)
(-0.0187109 -0.00149199 0)
(-0.0181874 -0.00159252 0)
(-0.0176312 -0.00168817 0)
(-0.0170439 -0.00177833 0)
(-0.0164276 -0.00186236 0)
(-0.0157844 -0.00193963 0)
(-0.0151166 -0.0020095 0)
(-0.0144269 -0.00207136 0)
(-0.013718 -0.00212459 0)
(-0.0129928 -0.0021686 0)
(-0.0122545 -0.00220282 0)
(-0.0115065 -0.00222669 0)
(-0.0107522 -0.00223972 0)
(-0.00999516 -0.00224142 0)
(-0.00923929 -0.00223137 0)
(-0.00848841 -0.00220919 0)
(-0.00774651 -0.00217459 0)
(-0.00701766 -0.0021273 0)
(-0.00630594 -0.00206717 0)
(-0.00561546 -0.00199411 0)
(-0.00495034 -0.00190816 0)
(-0.00431458 -0.00180946 0)
(-0.00371212 -0.0016983 0)
(-0.00314671 -0.00157515 0)
(-0.00262188 -0.00144072 0)
(-0.00214086 -0.00129595 0)
(-0.00170646 -0.00114219 0)
(-0.00132102 -0.000981194 0)
(-0.000986228 -0.000815361 0)
(-0.000703022 -0.000647865 0)
(-0.000471393 -0.000482937 0)
(-0.000290236 -0.000326202 0)
(-0.000157105 -0.000185122 0)
(-6.79691e-05 -6.94803e-05 0)
(-1.77042e-05 7.97711e-06 0)
(-8.06108e-07 2.95553e-05 0)
(-5.08706e-06 1.46385e-06 0)
(-4.25248e-05 8.62312e-05 0)
(-0.000133436 0.000226472 0)
(-0.000276609 0.000402894 0)
(-0.000473007 0.000600815 0)
(-0.00072402 0.000809101 0)
(-0.00102969 0.00101949 0)
(-0.00138901 0.00122592 0)
(-0.00180015 0.00142407 0)
(-0.00226064 0.00161091 0)
(-0.00276748 0.00178438 0)
(-0.00331728 0.00194323 0)
(-0.00390639 0.00208674 0)
(-0.004531 0.00221464 0)
(-0.00518722 0.00232697 0)
(-0.00587112 0.00242401 0)
(-0.00657885 0.00250621 0)
(-0.0073066 0.00257412 0)
(-0.00805071 0.00262837 0)
(-0.0088076 0.00266965 0)
(-0.00957389 0.00269865 0)
(-0.0103463 0.00271605 0)
(-0.0111218 0.00272255 0)
(-0.0118974 0.0027188 0)
(-0.0126704 0.00270541 0)
(-0.013438 0.00268298 0)
(-0.0141979 0.00265205 0)
(-0.0149477 0.00261312 0)
(-0.0156852 0.00256664 0)
(-0.0164082 0.00251302 0)
(-0.0171147 0.00245264 0)
(-0.017803 0.00238582 0)
(-0.018471 0.00231286 0)
(-0.0191172 0.00223402 0)
(-0.0197398 0.00214951 0)
(-0.0203372 0.00205954 0)
(-0.0209079 0.0019643 0)
(-0.0214504 0.00186394 0)
(-0.0219633 0.00175861 0)
(-0.0224451 0.00164844 0)
(-0.0228946 0.00153356 0)
(-0.0233103 0.00141411 0)
(-0.0236912 0.00129021 0)
(-0.0240358 0.00116201 0)
(-0.0243431 0.00102965 0)
(-0.024612 0.000893306 0)
(-0.0248413 0.000753151 0)
(-0.0250301 0.000609394 0)
(-0.0251774 0.000462263 0)
(-0.0252823 0.000312015 0)
(-0.0253442 0.000158936 0)
(-0.0253622 3.34739e-06 0)
(-0.0253358 -0.000154397 0)
(-0.0252644 -0.000313906 0)
(-0.0251478 -0.000474752 0)
(-0.0249856 -0.000636468 0)
(-0.0247778 -0.000798547 0)
(-0.0245244 -0.000960443 0)
(-0.0242255 -0.00112157 0)
(-0.0238815 -0.00128131 0)
(-0.023493 -0.00143899 0)
(-0.0230607 -0.00159393 0)
(-0.0225855 -0.0017454 0)
(-0.0220685 -0.00189264 0)
(-0.0215111 -0.00203486 0)
(-0.0209148 -0.00217126 0)
(-0.0202813 -0.00230101 0)
(-0.0196127 -0.00242328 0)
(-0.0189112 -0.00253722 0)
(-0.0181792 -0.00264197 0)
(-0.0174195 -0.00273669 0)
(-0.0166348 -0.00282056 0)
(-0.0158284 -0.00289274 0)
(-0.0150036 -0.00295244 0)
(-0.0141638 -0.00299891 0)
(-0.0133129 -0.00303142 0)
(-0.0124547 -0.00304928 0)
(-0.0115934 -0.00305189 0)
(-0.010733 -0.00303868 0)
(-0.00987805 -0.00300917 0)
(-0.00903289 -0.00296297 0)
(-0.00820204 -0.00289977 0)
(-0.00739006 -0.00281937 0)
(-0.00660151 -0.00272172 0)
(-0.00584091 -0.00260688 0)
(-0.00511269 -0.00247511 0)
(-0.00442116 -0.00232684 0)
(-0.00377044 -0.00216277 0)
(-0.00316437 -0.00198387 0)
(-0.00260646 -0.00179147 0)
(-0.00209981 -0.00158738 0)
(-0.00164695 -0.00137394 0)
(-0.00124981 -0.00115426 0)
(-0.000909531 -0.000932358 0)
(-0.000626367 -0.000713463 0)
(-0.000399573 -0.00050435 0)
(-0.000227182 -0.000313774 0)
(-0.000105827 -0.000152924 0)
(-3.19572e-05 -3.60229e-05 0)
(-3.25468e-06 1.7738e-05 0)
(-7.58387e-06 2.63497e-05 0)
(-5.75767e-05 0.000163498 0)
(-0.000173913 0.000358569 0)
(-0.000351787 0.000591601 0)
(-0.000590178 0.000847071 0)
(-0.000889422 0.00111296 0)
(-0.00124876 0.00138009 0)
(-0.00166654 0.00164161 0)
(-0.00214045 0.0018925 0)
(-0.00266763 0.00212916 0)
(-0.00324473 0.00234913 0)
(-0.00386809 0.0025508 0)
(-0.00453375 0.00273327 0)
(-0.00523763 0.00289612 0)
(-0.00597555 0.00303935 0)
(-0.00674331 0.00316324 0)
(-0.00753674 0.0032683 0)
(-0.00835174 0.00335518 0)
(-0.00918434 0.00342462 0)
(-0.0100307 0.00347745 0)
(-0.0108871 0.00351451 0)
(-0.0117499 0.00353665 0)
(-0.0126159 0.00354471 0)
(-0.0134818 0.00353952 0)
(-0.0143445 0.00352185 0)
(-0.0152011 0.00349244 0)
(-0.0160489 0.00345198 0)
(-0.0168853 0.0034011 0)
(-0.0177078 0.00334038 0)
(-0.018514 0.00327034 0)
(-0.0193018 0.00319147 0)
(-0.020069 0.0031042 0)
(-0.0208136 0.00300889 0)
(-0.0215337 0.0029059 0)
(-0.0222273 0.00279552 0)
(-0.0228928 0.00267801 0)
(-0.0235283 0.00255361 0)
(-0.0241323 0.00242255 0)
(-0.0247031 0.00228501 0)
(-0.0252391 0.00214119 0)
(-0.0257389 0.00199125 0)
(-0.0262011 0.00183538 0)
(-0.0266242 0.00167376 0)
(-0.0270068 0.00150657 0)
(-0.0273478 0.00133402 0)
(-0.0276457 0.00115632 0)
(-0.0278996 0.000973734 0)
(-0.0281082 0.000786521 0)
(-0.0282706 0.000594985 0)
(-0.0283858 0.000399466 0)
(-0.0284529 0.00020034 0)
(-0.0284712 -1.97216e-06 0)
(-0.02844 -0.000207008 0)
(-0.0283589 -0.00041426 0)
(-0.0282273 -0.00062317 0)
(-0.0280451 -0.000833131 0)
(-0.0278121 -0.00104349 0)
(-0.0275285 -0.00125353 0)
(-0.0271943 -0.00146251 0)
(-0.0268101 -0.00166961 0)
(-0.0263765 -0.00187399 0)
(-0.0258943 -0.00207475 0)
(-0.0253644 -0.00227096 0)
(-0.0247882 -0.00246163 0)
(-0.0241672 -0.00264576 0)
(-0.023503 -0.00282231 0)
(-0.0227977 -0.00299023 0)
(-0.0220534 -0.00314843 0)
(-0.0212726 -0.00329584 0)
(-0.020458 -0.00343136 0)
(-0.0196126 -0.00355391 0)
(-0.0187396 -0.00366243 0)
(-0.0178424 -0.00375586 0)
(-0.0169246 -0.00383321 0)
(-0.0159903 -0.00389349 0)
(-0.0150434 -0.0039358 0)
(-0.0140883 -0.00395928 0)
(-0.0131293 -0.00396314 0)
(-0.0121713 -0.0039467 0)
(-0.0112188 -0.00390935 0)
(-0.0102767 -0.00385062 0)
(-0.00934997 -0.00377014 0)
(-0.00844354 -0.00366772 0)
(-0.00756234 -0.00354329 0)
(-0.00671128 -0.003397 0)
(-0.00589514 -0.00322922 0)
(-0.00511859 -0.00304056 0)
(-0.00438605 -0.00283196 0)
(-0.00370167 -0.0026047 0)
(-0.00306922 -0.00236053 0)
(-0.00249206 -0.0021017 0)
(-0.00197298 -0.00183119 0)
(-0.00151416 -0.00155278 0)
(-0.00111703 -0.0012713 0)
(-0.000782224 -0.000992895 0)
(-0.000509471 -0.000725353 0)
(-0.000297432 -0.000478499 0)
(-0.000143549 -0.000264606 0)
(-4.59678e-05 -9.8919e-05 0)
(-5.58766e-06 -1.4409e-06 0)
(-9.93892e-06 5.88442e-05 0)
(-7.20775e-05 0.000260717 0)
(-0.000213361 0.00052065 0)
(-0.000425536 0.000818521 0)
(-0.000705573 0.00113842 0)
(-0.00105271 0.00146772 0)
(-0.00146528 0.00179661 0)
(-0.00194091 0.00211762 0)
(-0.00247669 0.00242518 0)
(-0.00306932 0.00271521 0)
(-0.00371509 0.00298487 0)
(-0.00440997 0.00323228 0)
(-0.00514975 0.00345631 0)
(-0.00593005 0.00365647 0)
(-0.00674642 0.00383267 0)
(-0.0075944 0.00398522 0)
(-0.00846955 0.00411467 0)
(-0.00936752 0.00422175 0)
(-0.0102841 0.00430735 0)
(-0.0112151 0.0043724 0)
(-0.0121565 0.00441792 0)
(-0.0131047 0.00444492 0)
(-0.0140559 0.00445441 0)
(-0.0150066 0.00444737 0)
(-0.0159536 0.00442474 0)
(-0.0168937 0.00438742 0)
(-0.0178239 0.00433625 0)
(-0.0187415 0.00427201 0)
(-0.0196436 0.0041954 0)
(-0.0205277 0.00410709 0)
(-0.0213915 0.00400766 0)
(-0.0222326 0.00389765 0)
(-0.0230487 0.00377753 0)
(-0.0238378 0.00364772 0)
(-0.0245978 0.00350861 0)
(-0.0253268 0.00336054 0)
(-0.0260228 0.00320381 0)
(-0.0266841 0.0030387 0)
(-0.0273089 0.00286546 0)
(-0.0278956 0.00268434 0)
(-0.0284424 0.00249555 0)
(-0.0289477 0.00229935 0)
(-0.0294102 0.00209595 0)
(-0.0298282 0.00188561 0)
(-0.0302005 0.00166858 0)
(-0.0305256 0.00144516 0)
(-0.0308023 0.00121565 0)
(-0.0310294 0.000980409 0)
(-0.0312057 0.000739816 0)
(-0.0313304 0.000494302 0)
(-0.0314023 0.000244345 0)
(-0.0314208 -9.52616e-06 0)
(-0.0313852 -0.000266729 0)
(-0.0312948 -0.000526625 0)
(-0.0311493 -0.000788514 0)
(-0.0309483 -0.00105164 0)
(-0.0306919 -0.00131517 0)
(-0.03038 -0.00157824 0)
(-0.0300129 -0.00183989 0)
(-0.0295912 -0.00209912 0)
(-0.0291154 -0.00235488 0)
(-0.0285865 -0.00260604 0)
(-0.0280057 -0.00285144 0)
(-0.0273742 -0.00308988 0)
(-0.0266937 -0.00332009 0)
(-0.0259662 -0.00354079 0)
(-0.0251937 -0.00375066 0)
(-0.0243786 -0.00394838 0)
(-0.0235237 -0.00413259 0)
(-0.0226319 -0.00430196 0)
(-0.0217064 -0.00445514 0)
(-0.0207506 -0.00459082 0)
(-0.0197684 -0.00470771 0)
(-0.0187636 -0.00480456 0)
(-0.0177405 -0.00488019 0)
(-0.0167035 -0.00493347 0)
(-0.0156573 -0.00496336 0)
(-0.0146066 -0.00496891 0)
(-0.0135565 -0.00494928 0)
(-0.012512 -0.00490377 0)
(-0.0114784 -0.00483179 0)
(-0.010461 -0.00473296 0)
(-0.00946498 -0.00460703 0)
(-0.00849572 -0.004454 0)
(-0.00755844 -0.0042741 0)
(-0.00665828 -0.00406781 0)
(-0.00580018 -0.00383595 0)
(-0.00498887 -0.00357972 0)
(-0.00422879 -0.00330071 0)
(-0.00352399 -0.00300109 0)
(-0.00287809 -0.00268363 0)
(-0.00229416 -0.00235185 0)
(-0.00177469 -0.0020102 0)
(-0.00132148 -0.00166428 0)
(-0.000935589 -0.00132103 0)
(-0.000617328 -0.000989105 0)
(-0.000366072 -0.000679174 0)
(-0.000180143 -0.000404307 0)
(-5.9383e-05 -0.000180382 0)
(-7.75902e-06 -2.76984e-05 0)
(-1.2134e-05 9.8593e-05 0)
(-8.58895e-05 0.000377252 0)
(-0.000251325 0.000712016 0)
(-0.000496931 0.00108301 0)
(-0.000817771 0.00147422 0)
(-0.00121196 0.00187271 0)
(-0.00167688 0.00226827 0)
(-0.00220934 0.00265301 0)
(-0.00280583 0.00302092 0)
(-0.00346252 0.00336757 0)
(-0.00417527 0.00368979 0)
(-0.00493973 0.00398549 0)
(-0.00575134 0.00425336 0)
(-0.00660546 0.0044928 0)
(-0.00749735 0.00470371 0)
(-0.00842232 0.00488639 0)
(-0.00937569 0.00504144 0)
(-0.0103528 0.00516971 0)
(-0.0113493 0.00527218 0)
(-0.0123607 0.00534994 0)
(-0.0133829 0.00540415 0)
(-0.0144118 0.00543599 0)
(-0.0154435 0.00544665 0)
(-0.0164744 0.00543726 0)
(-0.0175009 0.00540895 0)
(-0.0185196 0.00536278 0)
(-0.0195274 0.00529973 0)
(-0.0205212 0.00522074 0)
(-0.0214982 0.00512667 0)
(-0.0224556 0.00501829 0)
(-0.0233907 0.00489633 0)
(-0.0243011 0.00476141 0)
(-0.0251843 0.00461413 0)
(-0.0260382 0.004455 0)
(-0.0268604 0.00428449 0)
(-0.0276489 0.00410302 0)
(-0.0284017 0.00391097 0)
(-0.0291168 0.00370867 0)
(-0.0297922 0.00349644 0)
(-0.0304262 0.0032746 0)
(-0.031017 0.00304343 0)
(-0.031563 0.00280322 0)
(-0.0320623 0.00255427 0)
(-0.0325136 0.00229688 0)
(-0.0329153 0.00203138 0)
(-0.0332659 0.00175813 0)
(-0.033564 0.00147752 0)
(-0.0338085 0.00118998 0)
(-0.033998 0.000895985 0)
(-0.0341316 0.000596066 0)
(-0.0342083 0.00029081 0)
(-0.0342271 -1.91361e-05 0)
(-0.0341873 -0.000333059 0)
(-0.0340884 -0.000650178 0)
(-0.0339299 -0.00096964 0)
(-0.0337116 -0.00129052 0)
(-0.0334333 -0.00161182 0)
(-0.0330951 -0.00193246 0)
(-0.0326973 -0.0022513 0)
(-0.0322405 -0.00256712 0)
(-0.0317253 -0.00287864 0)
(-0.0311528 -0.0031845 0)
(-0.0305242 -0.0034833 0)
(-0.029841 -0.00377356 0)
(-0.0291048 -0.00405377 0)
(-0.0283179 -0.00432237 0)
(-0.0274824 -0.00457779 0)
(-0.0266009 -0.0048184 0)
(-0.0256764 -0.00504259 0)
(-0.0247119 -0.00524873 0)
(-0.023711 -0.00543521 0)
(-0.0226774 -0.00560046 0)
(-0.021615 -0.00574292 0)
(-0.0205281 -0.00586111 0)
(-0.0194213 -0.00595359 0)
(-0.0182992 -0.00601903 0)
(-0.0171668 -0.00605618 0)
(-0.0160293 -0.00606393 0)
(-0.014892 -0.00604129 0)
(-0.0137602 -0.00598743 0)
(-0.0126396 -0.00590169 0)
(-0.0115357 -0.00578363 0)
(-0.0104542 -0.005633 0)
(-0.00940072 -0.00544984 0)
(-0.0083808 -0.00523446 0)
(-0.00739989 -0.0049875 0)
(-0.00646322 -0.00470999 0)
(-0.00557581 -0.00440337 0)
(-0.00474239 -0.0040696 0)
(-0.00396729 -0.00371124 0)
(-0.00325441 -0.00333154 0)
(-0.00260716 -0.00293458 0)
(-0.00202835 -0.00252544 0)
(-0.0015202 -0.00211038 0)
(-0.00108428 -0.00169706 0)
(-0.00072151 -0.00129483 0)
(-0.000432029 -0.000915021 0)
(-0.000215049 -0.000571241 0)
(-7.20249e-05 -0.000279698 0)
(-9.75361e-06 -6.06322e-05 0)
(-1.41703e-05 0.000145199 0)
(-9.89651e-05 0.000512285 0)
(-0.000287561 0.000931703 0)
(-0.000565472 0.00138404 0)
(-0.000925953 0.00185342 0)
(-0.001366 0.00232686 0)
(-0.00188204 0.00279397 0)
(-0.00247005 0.00324656 0)
(-0.00312585 0.00367835 0)
(-0.00384506 0.00408466 0)
(-0.00462309 0.00446209 0)
(-0.00545518 0.00480836 0)
(-0.00633646 0.00512205 0)
(-0.00726197 0.00540249 0)
(-0.00822675 0.00564955 0)
(-0.00922581 0.00586356 0)
(-0.0102542 0.0060452 0)
(-0.0113072 0.00619539 0)
(-0.0123801 0.00631525 0)
(-0.0134682 0.00640601 0)
(-0.0145672 0.006469 0)
(-0.0156728 0.00650555 0)
(-0.016781 0.00651701 0)
(-0.0178878 0.00650472 0)
(-0.0189895 0.00646996 0)
(-0.0200826 0.00641397 0)
(-0.0211638 0.00633788 0)
(-0.0222296 0.0062428 0)
(-0.0232772 0.00612972 0)
(-0.0243036 0.00599956 0)
(-0.025306 0.00585317 0)
(-0.0262817 0.0056913 0)
(-0.0272282 0.00551464 0)
(-0.0281431 0.00532382 0)
(-0.029024 0.00511938 0)
(-0.0298686 0.00490184 0)
(-0.0306748 0.00467164 0)
(-0.0314405 0.00442921 0)
(-0.0321637 0.00417494 0)
(-0.0328424 0.00390918 0)
(-0.0334748 0.00363231 0)
(-0.034059 0.00334466 0)
(-0.0345933 0.00304661 0)
(-0.035076 0.00273853 0)
(-0.0355055 0.00242082 0)
(-0.0358803 0.00209391 0)
(-0.0361989 0.00175828 0)
(-0.0364599 0.00141445 0)
(-0.0366622 0.00106299 0)
(-0.0368045 0.000704531 0)
(-0.0368858 0.00033979 0)
(-0.0369052 -3.04629e-05 0)
(-0.0368619 -0.000405375 0)
(-0.0367553 -0.000784014 0)
(-0.036585 -0.00116536 0)
(-0.0363505 -0.00154831 0)
(-0.0360519 -0.00193168 0)
(-0.0356893 -0.00231419 0)