/*--------------------------------*- C++ -*----------------------------------*\
| =========                 |                                                 |
| \\      /  F ield         | OpenFOAM: The Open Source CFD Toolbox           |
|  \\    /   O peration     | Version:  2512                                  |
|   \\  /    A nd           | Website:  www.openfoam.com                      |
|    \\/     M anipulation  |                                                 |
\*---------------------------------------------------------------------------*/
FoamFile
{
    version     2.0;
    format      ascii;
    arch        "LSB;label=32;scalar=64";
    class       volVectorField;
    location    "0.14";
    object      U;
}
// * * * * * * * * * * * * * * * * * * * * * * * * * * * * * * * * * * * * * //

dimensions      [0 1 -1 0 0 0 0];

internalField   nonuniform List<vector> 
10000
(
(3.30905e-06 -2.66956e-06 0)
(1.10445e-05 -4.71356e-06 0)
(2.00701e-05 -4.28154e-06 0)
(2.44567e-05 -2.26059e-06 0)
(2.20623e-05 3.02344e-07 0)
(1.18568e-05 2.97218e-06 0)
(-6.2507e-06 5.55681e-06 0)
(-3.19743e-05 7.97011e-06 0)
(-6.48266e-05 1.01644e-05 0)
(-0.000104217 1.21224e-05 0)
(-0.000149519 1.38543e-05 0)
(-0.000200098 1.53761e-05 0)
(-0.000255333 1.66962e-05 0)
(-0.00031462 1.78233e-05 0)
(-0.000377388 1.87714e-05 0)
(-0.000443098 1.95565e-05 0)
(-0.000511248 2.01934e-05 0)
(-0.000581369 2.06944e-05 0)
(-0.000653027 2.10713e-05 0)
(-0.000725821 2.13347e-05 0)
(-0.000799382 2.14948e-05 0)
(-0.000873373 2.15608e-05 0)
(-0.000947485 2.154e-05 0)
(-0.00102143 2.14396e-05 0)
(-0.00109495 2.12678e-05 0)
(-0.0011678 2.1032e-05 0)
(-0.00123976 2.07376e-05 0)
(-0.00131063 2.03893e-05 0)
(-0.00138022 1.99903e-05 0)
(-0.00144835 1.95428e-05 0)
(-0.00151486 1.90499e-05 0)
(-0.00157959 1.85155e-05 0)
(-0.00164239 1.79424e-05 0)
(-0.00170314 1.73316e-05 0)
(-0.00176169 1.66836e-05 0)
(-0.0018179 1.59992e-05 0)
(-0.00187167 1.52794e-05 0)
(-0.00192286 1.45254e-05 0)
(-0.00197136 1.37379e-05 0)
(-0.00201705 1.29174e-05 0)
(-0.00205981 1.20637e-05 0)
(-0.00209953 1.11767e-05 0)
(-0.00213611 1.02566e-05 0)
(-0.00216942 9.30421e-06 0)
(-0.00219937 8.32069e-06 0)
(-0.00222584 7.30645e-06 0)
(-0.00224875 6.26168e-06 0)
(-0.00226797 5.18685e-06 0)
(-0.00228344 4.08297e-06 0)
(-0.00229504 2.95167e-06 0)
(-0.0023027 1.79476e-06 0)
(-0.00230633 6.14169e-07 0)
(-0.00230588 -5.87795e-07 0)
(-0.00230126 -1.80878e-06 0)
(-0.00229243 -3.04644e-06 0)
(-0.00227934 -4.29804e-06 0)
(-0.00226196 -5.56003e-06 0)
(-0.00224026 -6.8281e-06 0)
(-0.00221424 -8.09754e-06 0)
(-0.00218391 -9.36409e-06 0)
(-0.00214928 -1.06237e-05 0)
(-0.0021104 -1.18718e-05 0)
(-0.00206732 -1.31027e-05 0)
(-0.00202011 -1.43101e-05 0)
(-0.00196887 -1.54877e-05 0)
(-0.00191372 -1.6629e-05 0)
(-0.00185479 -1.77273e-05 0)
(-0.00179224 -1.8776e-05 0)
(-0.00172627 -1.9768e-05 0)
(-0.00165706 -2.06964e-05 0)
(-0.00158487 -2.15536e-05 0)
(-0.00150994 -2.23312e-05 0)
(-0.00143256 -2.30207e-05 0)
(-0.00135304 -2.36142e-05 0)
(-0.00127171 -2.41046e-05 0)
(-0.00118894 -2.4485e-05 0)
(-0.00110512 -2.47474e-05 0)
(-0.00102064 -2.48835e-05 0)
(-0.000935952 -2.48854e-05 0)
(-0.00085151 -2.47457e-05 0)
(-0.000767794 -2.44581e-05 0)
(-0.000685306 -2.40162e-05 0)
(-0.000604569 -2.34131e-05 0)
(-0.000526123 -2.26425e-05 0)
(-0.000450524 -2.16987e-05 0)
(-0.000378345 -2.05759e-05 0)
(-0.000310168 -1.92686e-05 0)
(-0.000246585 -1.77715e-05 0)
(-0.000188191 -1.6081e-05 0)
(-0.000135581 -1.41947e-05 0)
(-8.93359e-05 -1.21119e-05 0)
(-5.00146e-05 -9.83431e-06 0)
(-1.81309e-05 -7.3708e-06 0)
(5.88139e-06 -4.74517e-06 0)
(2.17309e-05 -2.00877e-06 0)
(2.93677e-05 7.34201e-07 0)
(2.91491e-05 3.26226e-06 0)
(2.22047e-05 5.13489e-06 0)
(1.15384e-05 5.4694e-06 0)
(2.90796e-06 2.90776e-06 0)
(5.57775e-06 -1.12382e-05 0)
(1.71503e-05 -1.61434e-05 0)
(2.5392e-05 -1.09512e-05 0)
(2.17992e-05 2.93649e-07 0)
(1.43402e-06 1.43268e-05 0)
(-3.78798e-05 2.93237e-05 0)
(-9.67926e-05 4.42468e-05 0)
(-0.000175037 5.85189e-05 0)
(-0.000271728 7.1819e-05 0)
(-0.000385628 8.39817e-05 0)
(-0.000515314 9.49428e-05 0)
(-0.000659265 0.0001047 0)
(-0.000815927 0.000113276 0)
(-0.000983765 0.000120713 0)
(-0.00116129 0.000127066 0)
(-0.00134707 0.000132397 0)
(-0.00153975 0.000136774 0)
(-0.00173805 0.000140263 0)
(-0.00194079 0.00014293 0)
(-0.00214685 0.000144837 0)
(-0.00235519 0.000146046 0)
(-0.00256486 0.000146611 0)
(-0.00277497 0.000146584 0)
(-0.00298472 0.000146014 0)
(-0.00319334 0.000144945 0)
(-0.00340014 0.000143416 0)
(-0.00360448 0.000141464 0)
(-0.00380576 0.000139121 0)
(-0.00400343 0.000136414 0)
(-0.00419698 0.000133367 0)
(-0.00438591 0.000129999 0)
(-0.00456977 0.00012633 0)
(-0.00474813 0.000122375 0)
(-0.00492059 0.000118146 0)
(-0.00508675 0.000113657 0)
(-0.00524623 0.000108913 0)
(-0.00539868 0.000103924 0)
(-0.00554373 9.8695e-05 0)
(-0.00568105 9.32307e-05 0)
(-0.0058103 8.75369e-05 0)
(-0.00593115 8.1618e-05 0)
(-0.00604329 7.54776e-05 0)
(-0.00614641 6.91186e-05 0)
(-0.00624018 6.25449e-05 0)
(-0.00632433 5.5762e-05 0)
(-0.00639855 4.87755e-05 0)
(-0.00646257 4.15918e-05 0)
(-0.00651611 3.42175e-05 0)
(-0.00655892 2.66607e-05 0)
(-0.00659075 1.89312e-05 0)
(-0.00661137 1.10408e-05 0)
(-0.00662057 3.0026e-06 0)
(-0.00661816 -5.16806e-06 0)
(-0.00660398 -1.34541e-05 0)
(-0.00657788 -2.18368e-05 0)
(-0.00653975 -3.02956e-05 0)
(-0.00648951 -3.88076e-05 0)
(-0.00642711 -4.73474e-05 0)
(-0.00635254 -5.58873e-05 0)
(-0.00626583 -6.43973e-05 0)
(-0.00616706 -7.28459e-05 0)
(-0.00605635 -8.11996e-05 0)
(-0.00593386 -8.94223e-05 0)
(-0.00579983 -9.74755e-05 0)
(-0.00565452 -0.000105319 0)
(-0.00549828 -0.00011291 0)
(-0.00533151 -0.000120205 0)
(-0.00515465 -0.000127158 0)
(-0.00496824 -0.000133723 0)
(-0.00477286 -0.000139852 0)
(-0.00456919 -0.000145495 0)
(-0.00435793 -0.000150603 0)
(-0.0041399 -0.000155124 0)
(-0.00391596 -0.000159006 0)
(-0.00368704 -0.000162201 0)
(-0.00345417 -0.000164659 0)
(-0.0032184 -0.000166331 0)
(-0.00298089 -0.000167168 0)
(-0.00274285 -0.000167124 0)
(-0.00250554 -0.000166154 0)
(-0.00227029 -0.000164216 0)
(-0.00203848 -0.000161269 0)
(-0.00181155 -0.000157277 0)
(-0.00159097 -0.000152207 0)
(-0.00137826 -0.00014603 0)
(-0.00117495 -0.000138721 0)
(-0.000982613 -0.000130264 0)
(-0.000802806 -0.000120648 0)
(-0.000637081 -0.000109878 0)
(-0.000486952 -9.79711e-05 0)
(-0.000353862 -8.49717e-05 0)
(-0.000239137 -7.09594e-05 0)
(-0.000143917 -5.60718e-05 0)
(-6.90489e-05 -4.05414e-05 0)
(-1.49267e-05 -2.47592e-05 0)
(1.87289e-05 -9.38495e-06 0)
(3.32068e-05 4.46843e-06 0)
(3.13328e-05 1.49235e-05 0)
(1.88521e-05 1.88516e-05 0)
(5.46318e-06 1.15285e-05 0)
(4.60457e-06 -2.04215e-05 0)
(1.14853e-05 -2.49074e-05 0)
(8.42972e-06 -7.77255e-06 0)
(-1.40246e-05 2.18746e-05 0)
(-6.14167e-05 5.81591e-05 0)
(-0.0001365 9.72083e-05 0)
(-0.000240321 0.000136527 0)
(-0.000372688 0.000174584 0)
(-0.00053255 0.000210457 0)
(-0.000718298 0.000243605 0)
(-0.000927985 0.000273754 0)
(-0.00115947 0.000300796 0)
(-0.00141053 0.000324729 0)
(-0.00167889 0.000345616 0)
(-0.00196235 0.000363571 0)
(-0.00225874 0.00037873 0)
(-0.00256601 0.000391249 0)
(-0.00288219 0.000401292 0)
(-0.00320543 0.000409025 0)
(-0.00353399 0.00041461 0)
(-0.00386625 0.000418205 0)
(-0.0042007 0.00041996 0)
(-0.00453593 0.000420017 0)
(-0.00487065 0.000418507 0)
(-0.00520364 0.00041555 0)
(-0.00553378 0.000411257 0)
(-0.00586003 0.000405727 0)
(-0.00618143 0.00039905 0)
(-0.00649709 0.000391306 0)
(-0.00680615 0.000382564 0)
(-0.00710783 0.000372885 0)
(-0.00740139 0.000362321 0)
(-0.00768613 0.000350918 0)
(-0.00796137 0.000338715 0)
(-0.00822649 0.000325746 0)
(-0.00848088 0.000312038 0)
(-0.00872394 0.000297616 0)
(-0.0089551 0.000282499 0)
(-0.00917382 0.000266705 0)
(-0.00937956 0.00025025 0)
(-0.0095718 0.000233148 0)
(-0.00975002 0.000215413 0)
(-0.00991373 0.000197058 0)
(-0.0100625 0.000178096 0)
(-0.0101957 0.000158544 0)
(-0.0103131 0.000138419 0)
(-0.010414 0.00011774 0)
(-0.0104982 9.65315e-05 0)
(-0.0105653 7.48172e-05 0)
(-0.0106147 5.2627e-05 0)
(-0.0106463 2.99949e-05 0)
(-0.0106597 6.95969e-06 0)
(-0.0106545 -1.64352e-05 0)
(-0.0106306 -4.01406e-05 0)
(-0.0105877 -6.4102e-05 0)
(-0.0105256 -8.82595e-05 0)
(-0.0104443 -0.000112548 0)
(-0.0103437 -0.000136895 0)
(-0.0102238 -0.000161223 0)
(-0.0100847 -0.000185448 0)
(-0.00992646 -0.000209479 0)
(-0.00974931 -0.00023322 0)
(-0.00955354 -0.000256569 0)
(-0.00933953 -0.000279418 0)
(-0.00910772 -0.000301654 0)
(-0.00885866 -0.000323158 0)
(-0.00859299 -0.000343806 0)
(-0.00831144 -0.000363471 0)
(-0.00801486 -0.000382021 0)
(-0.00770418 -0.00039932 0)
(-0.00738046 -0.000415232 0)
(-0.00704485 -0.000429617 0)
(-0.00669862 -0.000442334 0)
(-0.00634313 -0.000453241 0)
(-0.00597986 -0.0004622 0)
(-0.00561041 -0.000469071 0)
(-0.00523646 -0.00047372 0)
(-0.00485981 -0.000476015 0)
(-0.00448234 -0.000475829 0)
(-0.00410605 -0.00047304 0)
(-0.00373299 -0.000467535 0)
(-0.00336533 -0.000459209 0)
(-0.00300528 -0.000447967 0)
(-0.00265512 -0.000433728 0)
(-0.00231718 -0.000416423 0)
(-0.00199382 -0.000396007 0)
(-0.0016874 -0.000372453 0)
(-0.00140028 -0.000345767 0)
(-0.00113476 -0.000315996 0)
(-0.000893079 -0.000283241 0)
(-0.000677296 -0.000247685 0)
(-0.000489267 -0.000209624 0)
(-0.000330519 -0.000169521 0)
(-0.000202098 -0.000128096 0)
(-0.000104365 -8.64605e-05 0)
(-3.67223e-05 -4.63305e-05 0)
(2.74567e-06 -1.03331e-05 0)
(1.77564e-05 1.75382e-05 0)
(1.50047e-05 3.1346e-05 0)
(5.13373e-06 2.21849e-05 0)
(2.47314e-06 -2.54148e-05 0)
(1.31886e-07 -2.17564e-05 0)
(-2.12451e-05 1.45519e-05 0)
(-6.96991e-05 7.02845e-05 0)
(-0.000150393 0.000136881 0)
(-0.000266215 0.000208322 0)
(-0.000418264 0.00028052 0)
(-0.000606316 0.000350799 0)
(-0.000829192 0.000417451 0)
(-0.00108503 0.000479419 0)
(-0.00137151 0.000536099 0)
(-0.00168605 0.000587195 0)
(-0.00202591 0.000632625 0)
(-0.00238829 0.000672447 0)
(-0.00277037 0.000706815 0)
(-0.00316944 0.000735948 0)
(-0.00358283 0.0007601 0)
(-0.00400802 0.000779552 0)
(-0.00444257 0.000794596 0)
(-0.00488423 0.000805522 0)
(-0.00533084 0.000812613 0)
(-0.00578041 0.000816145 0)
(-0.00623106 0.000816381 0)
(-0.00668105 0.000813565 0)
(-0.00712875 0.000807924 0)
(-0.00757266 0.000799664 0)
(-0.00801136 0.000788977 0)
(-0.00844356 0.000776033 0)
(-0.00886802 0.000760985 0)
(-0.0092836 0.000743969 0)
(-0.00968923 0.000725105 0)
(-0.0100839 0.000704496 0)
(-0.0104666 0.000682232 0)
(-0.0108365 0.000658392 0)
(-0.0111927 0.000633043 0)
(-0.0115344 0.000606243 0)
(-0.0118608 0.000578041 0)
(-0.012171 0.000548479 0)
(-0.0124644 0.000517595 0)
(-0.0127402 0.000485423 0)
(-0.0129978 0.000451994 0)
(-0.0132364 0.000417338 0)
(-0.0134554 0.000381484 0)
(-0.0136541 0.000344463 0)
(-0.013832 0.000306307 0)
(-0.0139883 0.000267053 0)
(-0.0141226 0.000226741 0)
(-0.0142343 0.000185419 0)
(-0.0143228 0.000143138 0)
(-0.0143877 9.99584e-05 0)
(-0.0144286 5.59467e-05 0)
(-0.0144449 1.11794e-05 0)
(-0.0144363 -3.42582e-05 0)
(-0.0144026 -8.02706e-05 0)
(-0.0143434 -0.000126752 0)
(-0.0142586 -0.000173584 0)
(-0.0141481 -0.000220641 0)
(-0.0140116 -0.000267783 0)
(-0.0138494 -0.000314861 0)
(-0.0136615 -0.000361711 0)
(-0.013448 -0.00040816 0)
(-0.0132093 -0.000454022 0)
(-0.0129458 -0.0004991 0)
(-0.012658 -0.000543189 0)
(-0.0123465 -0.000586069 0)
(-0.0120121 -0.000627513 0)
(-0.0116555 -0.000667285 0)
(-0.0112779 -0.000705141 0)
(-0.0108803 -0.000740828 0)
(-0.010464 -0.000774089 0)
(-0.0100304 -0.000804662 0)
(-0.00958103 -0.00083228 0)
(-0.0091176 -0.000856678 0)
(-0.00864192 -0.000877587 0)
(-0.00815595 -0.000894743 0)
(-0.00766181 -0.000907884 0)
(-0.00716172 -0.000916755 0)
(-0.00665806 -0.000921109 0)
(-0.00615332 -0.000920709 0)
(-0.00565012 -0.00091533 0)
(-0.00515116 -0.000904764 0)
(-0.00465926 -0.000888822 0)
(-0.00417733 -0.000867336 0)
(-0.00370833 -0.000840166 0)
(-0.00325527 -0.000807207 0)
(-0.00282119 -0.000768392 0)
(-0.00240913 -0.000723708 0)
(-0.00202208 -0.000673206 0)
(-0.00166294 -0.000617022 0)
(-0.00133449 -0.00055541 0)
(-0.00103927 -0.000488777 0)
(-0.000779508 -0.000417756 0)
(-0.000556991 -0.000343288 0)
(-0.0003729 -0.00026676 0)
(-0.000227587 -0.000190205 0)
(-0.000120313 -0.000116595 0)
(-4.89114e-05 -5.02465e-05 0)
(-9.37674e-06 2.67108e-06 0)
(4.82924e-06 3.3461e-05 0)
(3.30373e-06 2.91986e-05 0)
(-1.24953e-07 -2.31746e-05 0)
(-1.39771e-05 -1.68681e-06 0)
(-5.77344e-05 6.18356e-05 0)
(-0.000136677 0.000150984 0)
(-0.000254854 0.00025481 0)
(-0.000414828 0.000365397 0)
(-0.000617475 0.000477133 0)
(-0.000862376 0.000586177 0)
(-0.00114815 0.000689966 0)
(-0.00147271 0.000786852 0)
(-0.00183345 0.000875827 0)
(-0.00222743 0.000956345 0)
(-0.00265152 0.00102819 0)
(-0.00310247 0.00109138 0)
(-0.00357704 0.00114609 0)
(-0.00407202 0.00119261 0)
(-0.00458426 0.00123128 0)
(-0.00511076 0.00126252 0)
(-0.00564861 0.00128676 0)
(-0.00619509 0.00130442 0)
(-0.00674759 0.00131593 0)
(-0.00730369 0.00132173 0)
(-0.00786109 0.0013222 0)
(-0.00841765 0.00131774 0)
(-0.00897139 0.00130869 0)
(-0.00952043 0.00129538 0)
(-0.010063 0.00127812 0)
(-0.0105976 0.00125717 0)
(-0.0111225 0.00123279 0)
(-0.0116364 0.00120518 0)
(-0.012138 0.00117454 0)
(-0.012626 0.00114105 0)
(-0.0130991 0.00110485 0)
(-0.0135563 0.00106607 0)
(-0.0139964 0.00102482 0)
(-0.0144184 0.000981206 0)
(-0.0148214 0.000935302 0)
(-0.0152044 0.000887185 0)
(-0.0155664 0.00083692 0)
(-0.0159065 0.000784566 0)
(-0.0162239 0.000730178 0)
(-0.0165178 0.000673808 0)
(-0.0167873 0.000615508 0)
(-0.0170316 0.000555333 0)
(-0.01725 0.000493339 0)
(-0.0174417 0.000429589 0)
(-0.0176061 0.000364153 0)
(-0.0177424 0.000297109 0)
(-0.0178501 0.000228544 0)
(-0.0179286 0.000158558 0)
(-0.0179772 8.72619e-05 0)
(-0.0179956 1.47808e-05 0)
(-0.0179832 -5.87455e-05 0)
(-0.0179398 -0.000133162 0)
(-0.017865 -0.000208297 0)
(-0.0177585 -0.00028396 0)
(-0.0176203 -0.000359947 0)
(-0.0174503 -0.000436032 0)
(-0.0172486 -0.000511973 0)
(-0.0170152 -0.000587509 0)
(-0.0167504 -0.00066236 0)
(-0.0164547 -0.00073623 0)
(-0.0161286 -0.000808803 0)
(-0.0157726 -0.000879747 0)
(-0.0153875 -0.000948714 0)
(-0.0149744 -0.00101534 0)
(-0.0145342 -0.00107925 0)
(-0.0140681 -0.00114004 0)
(-0.0135777 -0.00119733 0)
(-0.0130644 -0.0012507 0)
(-0.0125299 -0.00129973 0)
(-0.0119762 -0.001344 0)
(-0.0114053 -0.00138308 0)
(-0.0108195 -0.00141656 0)
(-0.0102211 -0.00144402 0)
(-0.0096127 -0.00146504 0)
(-0.00899706 -0.00147922 0)
(-0.00837702 -0.00148618 0)
(-0.00775562 -0.00148555 0)
(-0.00713601 -0.00147697 0)
(-0.00652148 -0.00146013 0)
(-0.00591542 -0.00143475 0)
(-0.0053213 -0.00140058 0)
(-0.00474268 -0.00135741 0)
(-0.00418316 -0.00130512 0)
(-0.00364633 -0.00124363 0)
(-0.00313579 -0.00117297 0)
(-0.00265504 -0.00109325 0)
(-0.00220748 -0.00100477 0)
(-0.0017963 -0.000907979 0)
(-0.0014244 -0.000803599 0)
(-0.00109432 -0.000692682 0)
(-0.000808058 -0.000576745 0)
(-0.000566935 -0.000457942 0)
(-0.000371387 -0.000339309 0)
(-0.000220733 -0.000225103 0)
(-0.000112884 -0.000121265 0)
(-4.40044e-05 -3.59521e-05 0)
(-8.48615e-06 1.97407e-05 0)
(8.69992e-07 2.969e-05 0)
(-2.81986e-06 -1.31077e-05 0)
(-2.91282e-05 3.75057e-05 0)
(-9.73264e-05 0.000137143 0)
(-0.00020928 0.000267244 0)
(-0.000367399 0.000415016 0)
(-0.00057359 0.000570951 0)
(-0.000828262 0.000728095 0)
(-0.00113063 0.000881522 0)
(-0.00147901 0.00102784 0)
(-0.00187105 0.00116476 0)
(-0.00230388 0.00129086 0)
(-0.00277426 0.00140531 0)
(-0.00327871 0.00150771 0)
(-0.00381366 0.00159802 0)
(-0.00437548 0.0016764 0)
(-0.00496056 0.0017432 0)
(-0.00556537 0.00179887 0)
(-0.00618649 0.00184394 0)
(-0.00682063 0.00187896 0)
(-0.00746465 0.00190453 0)
(-0.00811557 0.00192124 0)
(-0.00877057 0.00192967 0)
(-0.00942701 0.00193038 0)
(-0.0100824 0.00192389 0)
(-0.0107344 0.00191072 0)
(-0.0113808 0.00189132 0)
(-0.0120195 0.00186613 0)
(-0.0126488 0.00183553 0)
(-0.0132667 0.00179988 0)
(-0.0138716 0.00175949 0)
(-0.0144618 0.00171464 0)
(-0.015036 0.00166559 0)
(-0.0155926 0.00161254 0)
(-0.0161303 0.00155571 0)
(-0.0166479 0.00149524 0)
(-0.017144 0.00143129 0)
(-0.0176176 0.00136398 0)
(-0.0180675 0.00129344 0)
(-0.0184926 0.00121974 0)
(-0.0188919 0.001143 0)
(-0.0192643 0.0010633 0)
(-0.0196088 0.000980704 0)
(-0.0199245 0.000895309 0)
(-0.0202105 0.000807196 0)
(-0.0204659 0.000716454 0)
(-0.0206899 0.000623178 0)
(-0.0208815 0.000527474 0)
(-0.0210401 0.000429461 0)
(-0.0211649 0.00032927 0)
(-0.0212553 0.000227049 0)
(-0.0213106 0.000122963 0)
(-0.0213303 1.71968e-05 0)
(-0.0213138 -9.00438e-05 0)
(-0.0212609 -0.000198531 0)
(-0.021171 -0.000308013 0)
(-0.0210441 -0.000418215 0)
(-0.0208799 -0.000528837 0)
(-0.0206785 -0.000639551 0)
(-0.0204398 -0.000750006 0)
(-0.0201641 -0.000859823 0)
(-0.0198517 -0.000968597 0)
(-0.0195031 -0.0010759 0)
(-0.0191188 -0.00118127 0)
(-0.0186997 -0.00128423 0)
(-0.0182467 -0.00138429 0)
(-0.0177608 -0.0014809 0)
(-0.0172434 -0.00157354 0)
(-0.0166958 -0.00166163 0)
(-0.0161198 -0.00174461 0)
(-0.0155172 -0.00182188 0)
(-0.0148899 -0.00189284 0)
(-0.0142401 -0.0019569 0)
(-0.0135704 -0.00201343 0)
(-0.0128832 -0.00206185 0)
(-0.0121814 -0.00210155 0)
(-0.0114679 -0.00213195 0)
(-0.010746 -0.00215247 0)
(-0.0100188 -0.00216258 0)
(-0.00928998 -0.00216175 0)
(-0.00856309 -0.0021495 0)
(-0.00784193 -0.0021254 0)
(-0.00713038 -0.00208904 0)
(-0.00643242 -0.00204011 0)
(-0.00575211 -0.00197835 0)
(-0.00509353 -0.0019036 0)
(-0.00446075 -0.0018158 0)
(-0.00385783 -0.00171504 0)
(-0.00328871 -0.00160156 0)
(-0.00275716 -0.00147581 0)
(-0.00226673 -0.00133853 0)
(-0.00182065 -0.00119079 0)
(-0.0014217 -0.00103413 0)
(-0.00107209 -0.000870697 0)
(-0.000773345 -0.000703445 0)
(-0.00052609 -0.000536414 0)
(-0.000329895 -0.000375086 0)
(-0.000183016 -0.000226867 0)
(-8.21258e-05 -0.000101608 0)
(-2.3054e-05 -1.23135e-05 0)
(-1.72187e-06 2.26769e-05 0)
(-5.44751e-06 4.93878e-06 0)
(-4.43829e-05 9.6716e-05 0)
(-0.000137756 0.000241906 0)
(-0.000283778 0.000420731 0)
(-0.000482963 0.000619098 0)
(-0.00073632 0.000826252 0)
(-0.00104359 0.00103414 0)
(-0.00140346 0.00123691 0)
(-0.00181387 0.00143038 0)
(-0.00227213 0.0016117 0)
(-0.00277506 0.00177899 0)
(-0.00331915 0.00193113 0)
(-0.00390063 0.00206754 0)
(-0.00451562 0.00218809 0)
(-0.00516016 0.00229292 0)
(-0.00583032 0.00238242 0)
(-0.00652225 0.00245714 0)
(-0.00723216 0.0025177 0)
(-0.00795645 0.00256483 0)
(-0.00869161 0.00259926 0)
(-0.00943434 0.00262175 0)
(-0.0101815 0.00263306 0)
(-0.0109301 0.00263391 0)
(-0.0116773 0.002625 0)
(-0.0124206 0.00260698 0)
(-0.0131574 0.00258047 0)
(-0.0138854 0.00254604 0)
(-0.0146025 0.00250421 0)
(-0.0153066 0.00245547 0)
(-0.0159957 0.00240022 0)
(-0.0166681 0.00233886 0)
(-0.0173221 0.00227172 0)
(-0.017956 0.00219911 0)
(-0.0185682 0.00212128 0)
(-0.0191574 0.00203848 0)
(-0.019722 0.0019509 0)
(-0.0202609 0.00185873 0)
(-0.0207725 0.00176212 0)
(-0.0212558 0.00166122 0)
(-0.0217096 0.00155615 0)
(-0.0221326 0.00144705 0)
(-0.0225237 0.00133402 0)
(-0.0228819 0.00121719 0)
(-0.0232061 0.00109668 0)
(-0.0234954 0.000972607 0)
(-0.0237487 0.000845119 0)
(-0.0239651 0.000714361 0)
(-0.0241439 0.0005805 0)
(-0.0242842 0.000443719 0)
(-0.0243851 0.000304223 0)
(-0.0244462 0.000162241 0)
(-0.0244666 1.80278e-05 0)
(-0.024446 -0.000128134 0)
(-0.0243838 -0.000275933 0)
(-0.0242797 -0.000425026 0)
(-0.0241335 -0.000575036 0)
(-0.0239449 -0.000725555 0)
(-0.023714 -0.00087614 0)
(-0.0234408 -0.00102631 0)
(-0.0231257 -0.00117556 0)
(-0.022769 -0.00132333 0)
(-0.0223712 -0.00146904 0)
(-0.021933 -0.00161209 0)
(-0.0214554 -0.00175181 0)
(-0.0209394 -0.00188753 0)
(-0.0203862 -0.00201855 0)
(-0.0197973 -0.00214413 0)
(-0.0191744 -0.00226351 0)
(-0.0185193 -0.00237592 0)
(-0.0178341 -0.00248057 0)
(-0.017121 -0.00257666 0)
(-0.0163825 -0.00266337 0)
(-0.0156215 -0.0027399 0)
(-0.0148407 -0.00280544 0)
(-0.0140434 -0.00285919 0)
(-0.0132328 -0.00290037 0)
(-0.0124125 -0.00292824 0)
(-0.0115863 -0.00294206 0)
(-0.010758 -0.00294116 0)
(-0.00993172 -0.00292491 0)
(-0.00911163 -0.00289274 0)
(-0.00830205 -0.00284416 0)
(-0.00750742 -0.00277875 0)
(-0.00673219 -0.00269623 0)
(-0.00598088 -0.0025964 0)
(-0.00525798 -0.00247925 0)
(-0.00456792 -0.00234494 0)
(-0.003915 -0.00219387 0)
(-0.00330334 -0.00202669 0)
(-0.00273679 -0.00184444 0)
(-0.00221886 -0.0016486 0)
(-0.00175259 -0.00144121 0)
(-0.00134045 -0.00122506 0)
(-0.000984195 -0.00100392 0)
(-0.000684771 -0.000782749 0)
(-0.000442158 -0.000568149 0)
(-0.000255158 -0.00036877 0)
(-0.000121191 -0.000195818 0)
(-3.77888e-05 -6.36889e-05 0)
(-4.2575e-06 7.94233e-06 0)
(-7.93255e-06 3.0804e-05 0)
(-5.92415e-05 0.000175983 0)
(-0.000177667 0.000376467 0)
(-0.000357804 0.000611953 0)
(-0.000598185 0.000867541 0)
(-0.000898772 0.0011316 0)
(-0.00125849 0.00139523 0)
(-0.00167539 0.00165181 0)
(-0.00214692 0.00189652 0)
(-0.00267 0.00212598 0)
(-0.00324112 0.00233791 0)
(-0.00385647 0.0025309 0)
(-0.00451198 0.0027042 0)
(-0.00520351 0.00285757 0)
(-0.00592681 0.00299113 0)
(-0.00667766 0.00310532 0)
(-0.00745192 0.00320074 0)
(-0.00824553 0.00327815 0)
(-0.00905455 0.00333842 0)
(-0.00987522 0.00338243 0)
(-0.0107039 0.00341113 0)
(-0.0115372 0.00342543 0)
(-0.0123719 0.00342623 0)
(-0.0132048 0.00341441 0)
(-0.0140332 0.0033908 0)
(-0.0148542 0.00335617 0)
(-0.0156653 0.00331125 0)
(-0.016464 0.00325669 0)
(-0.0172482 0.00319311 0)
(-0.0180156 0.00312105 0)
(-0.0187643 0.003041 0)
(-0.0194923 0.00295341 0)
(-0.0201979 0.00285867 0)
(-0.0208792 0.00275711 0)
(-0.0215347 0.00264906 0)
(-0.0221628 0.00253477 0)
(-0.022762 0.00241449 0)
(-0.0233309 0.00228843 0)
(-0.0238681 0.00215678 0)
(-0.0243721 0.00201972 0)
(-0.0248419 0.00187742 0)
(-0.025276 0.00173004 0)
(-0.0256734 0.00157773 0)
(-0.0260328 0.00142067 0)
(-0.0263532 0.00125902 0)
(-0.0266335 0.00109297 0)
(-0.0268727 0.000922716 0)
(-0.0270699 0.000748482 0)
(-0.0272242 0.00057051 0)
(-0.0273348 0.000389073 0)
(-0.0274008 0.000204471 0)
(-0.0274217 1.70371e-05 0)
(-0.0273969 -0.000172859 0)
(-0.0273259 -0.00036481 0)
(-0.0272083 -0.000558369 0)
(-0.0270439 -0.000753049 0)
(-0.0268325 -0.000948317 0)
(-0.026574 -0.0011436 0)
(-0.0262687 -0.00133828 0)
(-0.0259169 -0.00153169 0)
(-0.0255188 -0.00172313 0)
(-0.0250753 -0.00191184 0)
(-0.0245871 -0.00209704 0)
(-0.0240551 -0.00227787 0)
(-0.0234806 -0.00245348 0)
(-0.0228649 -0.00262295 0)
(-0.0222097 -0.00278534 0)
(-0.0215169 -0.00293968 0)
(-0.0207884 -0.00308498 0)
(-0.0200265 -0.00322022 0)
(-0.0192339 -0.00334437 0)
(-0.0184132 -0.0034564 0)
(-0.0175674 -0.00355528 0)
(-0.0166997 -0.00363998 0)
(-0.0158137 -0.00370948 0)
(-0.014913 -0.00376279 0)
(-0.0140014 -0.00379897 0)
(-0.013083 -0.00381711 0)
(-0.0121621 -0.00381635 0)
(-0.0112432 -0.00379591 0)
(-0.0103308 -0.00375508 0)
(-0.00942957 -0.00369327 0)
(-0.00854438 -0.00361 0)
(-0.00768004 -0.00350491 0)
(-0.00684143 -0.00337783 0)
(-0.00603339 -0.00322879 0)
(-0.0052607 -0.00305805 0)
(-0.00452797 -0.00286616 0)
(-0.00383963 -0.00265404 0)
(-0.00319982 -0.00242302 0)
(-0.00261232 -0.002175 0)
(-0.00208044 -0.00191255 0)
(-0.00160694 -0.00163909 0)
(-0.00119389 -0.00135912 0)
(-0.000842655 -0.00107846 0)
(-0.000553738 -0.000804667 0)
(-0.000326629 -0.000547403 0)
(-0.000159636 -0.000318884 0)
(-5.20867e-05 -0.000134428 0)
(-6.64058e-06 -1.43477e-05 0)
(-1.0242e-05 6.4146e-05 0)
(-7.34433e-05 0.000274839 0)
(-0.000216275 0.00054043 0)
(-0.000429908 0.000840589 0)
(-0.000710903 0.00116003 0)
(-0.00105811 0.00148659 0)
(-0.00146956 0.00181076 0)
(-0.00194256 0.00212534 0)
(-0.00247401 0.002425 0)
(-0.00306036 0.00270592 0)
(-0.00369775 0.00296548 0)
(-0.00438202 0.00320202 0)
(-0.00510884 0.00341461 0)
(-0.00587376 0.00360294 0)
(-0.00667229 0.0037671 0)
(-0.00749995 0.00390757 0)
(-0.00835233 0.00402502 0)
(-0.00922511 0.00412035 0)
(-0.0101141 0.00419454 0)
(-0.0110153 0.00424865 0)
(-0.0119248 0.00428379 0)
(-0.012839 0.00430106 0)
(-0.0137543 0.00430154 0)
(-0.0146675 0.0042863 0)
(-0.0155754 0.00425632 0)
(-0.016475 0.00421256 0)
(-0.0173636 0.00415591 0)
(-0.0182386 0.00408717 0)
(-0.0190974 0.00400709 0)
(-0.0199378 0.00391635 0)
(-0.0207575 0.00381557 0)
(-0.0215545 0.00370529 0)
(-0.0223267 0.00358601 0)
(-0.0230723 0.00345815 0)
(-0.0237895 0.00332211 0)
(-0.0244766 0.00317823 0)
(-0.0251319 0.00302681 0)
(-0.0257539 0.00286813 0)
(-0.026341 0.00270244 0)
(-0.0268918 0.00252997 0)
(-0.0274049 0.00235093 0)
(-0.0278789 0.00216554 0)
(-0.0283126 0.00197399 0)
(-0.0287046 0.00177652 0)
(-0.0290538 0.00157333 0)
(-0.0293591 0.00136467 0)
(-0.0296194 0.00115079 0)
(-0.0298336 0.000931982 0)
(-0.0300008 0.00070855 0)
(-0.0301201 0.00048084 0)
(-0.0301907 0.000249234 0)
(-0.0302119 1.41522e-05 0)
(-0.0301831 -0.000223939 0)
(-0.0301038 -0.000464528 0)
(-0.0299735 -0.000707053 0)
(-0.0297921 -0.000950905 0)
(-0.0295593 -0.00119542 0)
(-0.0292752 -0.00143987 0)
(-0.0289399 -0.0016835 0)
(-0.0285538 -0.00192546 0)
(-0.0281173 -0.00216489 0)
(-0.0276311 -0.00240084 0)
(-0.0270962 -0.00263233 0)
(-0.0265136 -0.00285831 0)
(-0.0258847 -0.00307771 0)
(-0.0252108 -0.00328939 0)
(-0.0244939 -0.00349219 0)
(-0.0237359 -0.00368489 0)
(-0.0229391 -0.00386628 0)
(-0.0221059 -0.00403509 0)
(-0.0212391 -0.00419005 0)
(-0.0203417 -0.00432989 0)
(-0.019417 -0.00445334 0)
(-0.0184683 -0.00455912 0)
(-0.0174995 -0.00464599 0)
(-0.0165145 -0.00471275 0)
(-0.0155176 -0.00475823 0)
(-0.014513 -0.00478132 0)
(-0.0135055 -0.00478099 0)
(-0.0124997 -0.00475629 0)
(-0.0115006 -0.0047064 0)
(-0.0105132 -0.00463059 0)
(-0.00954263 -0.00452832 0)
(-0.00859412 -0.0043992 0)
(-0.00767285 -0.00424307 0)
(-0.00678397 -0.00406001 0)
(-0.00593255 -0.00385039 0)
(-0.00512352 -0.00361496 0)
(-0.00436158 -0.00335485 0)
(-0.00365117 -0.00307176 0)
(-0.00299633 -0.00276799 0)
(-0.00240067 -0.0024466 0)
(-0.00186729 -0.00211161 0)
(-0.00139865 -0.00176818 0)
(-0.000996577 -0.00142292 0)
(-0.000662198 -0.00108413 0)
(-0.000395772 -0.000762282 0)
(-0.00019655 -0.000470284 0)
(-6.56319e-05 -0.000223982 0)
(-8.83372e-06 -4.38178e-05 0)
(-1.23722e-05 0.000104553 0)
(-8.68668e-05 0.000392526 0)
(-0.000253164 0.000732932 0)
(-0.00049925 0.00110577 0)
(-0.00081979 0.0014957 0)
(-0.00121254 0.00189029 0)
(-0.00167455 0.00227968 0)
(-0.00220238 0.00265626 0)
(-0.00279229 0.00301433 0)
(-0.00344024 0.00334974 0)
(-0.00414193 0.00365959 0)
(-0.00489288 0.00394201 0)
(-0.00568844 0.00419596 0)
(-0.00652388 0.00442103 0)
(-0.00739446 0.00461734 0)
(-0.00829545 0.00478538 0)
(-0.00922221 0.00492591 0)
(-0.0101702 0.00503995 0)
(-0.011135 0.00512863 0)
(-0.0121123 0.00519316 0)
(-0.0130981 0.00523484 0)
(-0.0140884 0.00525494 0)
(-0.0150796 0.00525474 0)
(-0.0160681 0.00523547 0)
(-0.0170507 0.00519833 0)
(-0.018024 0.00514443 0)
(-0.0189853 0.00507483 0)
(-0.0199315 0.0049905 0)
(-0.0208602 0.00489233 0)
(-0.0217688 0.00478115 0)
(-0.0226549 0.00465768 0)
(-0.0235162 0.0045226 0)
(-0.0243507 0.00437651 0)
(-0.0251563 0.00421993 0)
(-0.0259311 0.00405334 0)
(-0.0266732 0.00387716 0)
(-0.0273808 0.00369177 0)
(-0.0280523 0.00349752 0)
(-0.028686 0.0032947 0)
(-0.0292804 0.00308362 0)
(-0.0298339 0.00286454 0)
(-0.0303451 0.00263773 0)
(-0.0308126 0.00240344 0)
(-0.0312351 0.00216196 0)
(-0.0316112 0.00191355 0)
(-0.0319398 0.00165851 0)
(-0.0322196 0.00139717 0)
(-0.0324497 0.00112987 0)
(-0.0326289 0.000857004 0)
(-0.0327564 0.000578992 0)
(-0.0328313 0.000296303 0)
(-0.0328528 9.45556e-06 0)
(-0.0328203 -0.000280981 0)
(-0.0327333 -0.000574381 0)
(-0.0325912 -0.00087006 0)
(-0.032394 -0.00116727 0)
(-0.0321413 -0.00146521 0)
(-0.0318333 -0.001763 0)
(-0.0314701 -0.0020597 0)
(-0.031052 -0.00235431 0)
(-0.0305797 -0.00264575 0)
(-0.0300538 -0.0029329 0)
(-0.0294754 -0.00321455 0)
(-0.0288455 -0.00348945 0)
(-0.0281657 -0.00375629 0)
(-0.0274376 -0.00401369 0)
(-0.026663 -0.00426025 0)
(-0.0258441 -0.00449452 0)
(-0.0249834 -0.00471501 0)
(-0.0240834 -0.0049202 0)
(-0.0231472 -0.00510857 0)
(-0.022178 -0.00527859 0)
(-0.0211792 -0.00542871 0)
(-0.0201546 -0.00555743 0)
(-0.0191081 -0.00566326 0)
(-0.018044 -0.00574475 0)
(-0.0169667 -0.00580052 0)
(-0.0158811 -0.00582925 0)
(-0.0147918 -0.00582972 0)
(-0.013704 -0.00580083 0)
(-0.012623 -0.0057416 0)
(-0.011554 -0.00565122 0)
(-0.0105026 -0.00552906 0)
(-0.0094741 -0.0053747 0)
(-0.00847411 -0.005188 0)
(-0.00750807 -0.00496911 0)
(-0.00658131 -0.00471851 0)
(-0.00569907 -0.00443714 0)
(-0.00486632 -0.0041264 0)
(-0.00408777 -0.00378828 0)
(-0.00336779 -0.0034255 0)
(-0.0027103 -0.00304159 0)
(-0.00211875 -0.0026411 0)
(-0.00159606 -0.00222981 0)
(-0.00114456 -0.00181493 0)
(-0.000766068 -0.00140543 0)
(-0.00046163 -0.00101231 0)
(-0.000231443 -0.000648971 0)
(-7.82771e-05 -0.000331456 0)
(-1.08279e-05 -7.9993e-05 0)
(-1.43321e-05 0.000151593 0)
(-9.94773e-05 0.000528137 0)
(-0.000288141 0.00095284 0)
(-0.000565386 0.00140628 0)
(-0.000924105 0.00187328 0)
(-0.00136097 0.00234139 0)
(-0.0018721 0.0028006 0)
(-0.00245322 0.00324307 0)
(-0.00309994 0.00366286 0)
(-0.00380767 0.00405557 0)
(-0.00457169 0.00441813 0)
(-0.00538712 0.00474853 0)
(-0.006249 0.00504562 0)
(-0.0071523 0.00530897 0)
(-0.00809204 0.00553869 0)
(-0.00906324 0.00573533 0)
(-0.010061 0.00589977 0)
(-0.0110806 0.00603311 0)
(-0.0121175 0.00613664 0)
(-0.013167 0.00621177 0)
(-0.014225 0.00625993 0)
(-0.0152874 0.00628262 0)
(-0.0163503 0.00628128 0)
(-0.0174099 0.00625736 0)
(-0.0184627 0.00621222 0)
(-0.0195054 0.00614717 0)
(-0.0205349 0.00606342 0)
(-0.0215482 0.00596213 0)
(-0.0225425 0.00584434 0)
(-0.0235151 0.00571101 0)
(-0.0244634 0.00556301 0)
(-0.0253851 0.00540114 0)
(-0.026278 0.00522609 0)
(-0.0271398 0.00503852 0)
(-0.0279685 0.00483897 0)
(-0.0287622 0.00462796 0)
(-0.0295189 0.00440595 0)
(-0.0302368 0.00417335 0)
(-0.0309142 0.00393053 0)
(-0.0315494 0.00367786 0)
(-0.0321408 0.00341565 0)
(-0.0326869 0.00314424 0)
(-0.0331862 0.00286395 0)
(-0.0336372 0.0025751 0)
(-0.0340386 0.00227803 0)
(-0.0343891 0.00197311 0)
(-0.0346875 0.00166072 0)
(-0.0349326 0.00134129 0)
(-0.0351233 0.00101528 0)
(-0.0352586 0.000683209 0)
(-0.0353376 0.000345634 0)
(-0.0353596 3.17749e-06 0)
(-0.0353239 -0.000343479 0)
(-0.0352298 -0.000693589 0)
(-0.035077 -0.00104633 0)
(-0.0348651 -0.00140083 0)
(-0.034594 -0.0017561 0)
(-0.0342637 -0.00211112 0)