/*--------------------------------*- C++ -*----------------------------------*\
| =========                 |                                                 |
| \\      /  F ield         | OpenFOAM: The Open Source CFD Toolbox           |
|  \\    /   O peration     | Version:  2512                                  |
|   \\  /    A nd           | Website:  www.openfoam.com                      |
|    \\/     M anipulation  |                                                 |
\*---------------------------------------------------------------------------*/
FoamFile
{
    version     2.0;
    format      ascii;
    arch        "LSB;label=32;scalar=64";
    class       surfaceScalarField;
    location    "0.4";
    object      phi;
}
// * * * * * * * * * * * * * * * * * * * * * * * * * * * * * * * * * * * * * //

dimensions      [0 3 -1 0 0 0 0];

oriented        oriented;

internalField   nonuniform List<scalar> 
19800
(
7.27908e-11
-7.28016e-11
2.22272e-10
-1.49489e-10
3.64139e-10
-1.41861e-10
4.49153e-10
-8.50126e-11
4.51591e-10
-2.43563e-12
3.59764e-10
9.18211e-11
1.70051e-10
1.89718e-10
-1.16381e-10
2.86416e-10
-4.95561e-10
3.79185e-10
-9.61992e-10
4.66422e-10
-1.50926e-09
5.47271e-10
-2.13056e-09
6.21311e-10
-2.81896e-09
6.88403e-10
-3.56758e-09
7.48623e-10
-4.36972e-09
8.02147e-10
-5.21896e-09
8.49235e-10
-6.10916e-09
8.90197e-10
-7.03452e-09
9.25351e-10
-7.98954e-09
9.55021e-10
-8.96908e-09
9.79534e-10
-9.96827e-09
9.99195e-10
-1.09826e-08
1.01429e-09
-1.20077e-08
1.0251e-09
-1.30395e-08
1.03184e-09
-1.40742e-08
1.03473e-09
-1.51082e-08
1.03395e-09
-1.61378e-08
1.02965e-09
-1.71598e-08
1.02196e-09
-1.81708e-08
1.01097e-09
-1.91675e-08
9.96774e-10
-2.0147e-08
9.7943e-10
-2.11059e-08
9.58961e-10
-2.20413e-08
9.35395e-10
-2.29501e-08
9.08752e-10
-2.38291e-08
8.79035e-10
-2.46753e-08
8.46232e-10
-2.54857e-08
8.10336e-10
-2.6257e-08
7.71349e-10
-2.69863e-08
7.29265e-10
-2.76704e-08
6.84086e-10
-2.83062e-08
6.35832e-10
-2.88907e-08
5.84534e-10
-2.9421e-08
5.30246e-10
-2.9894e-08
4.73034e-10
-3.0307e-08
4.12979e-10
-3.06572e-08
3.50198e-10
-3.0942e-08
2.84835e-10
-3.11591e-08
2.17059e-10
-3.13062e-08
1.47072e-10
-3.13813e-08
7.5097e-11
-3.13826e-08
1.39032e-12
-3.13089e-08
-7.37524e-11
-3.11589e-08
-1.50009e-10
-3.09319e-08
-2.27026e-10
-3.06275e-08
-3.04415e-10
-3.02457e-08
-3.81776e-10
-2.9787e-08
-4.58679e-10
-2.92523e-08
-5.34665e-10
-2.86431e-08
-6.09261e-10
-2.79611e-08
-6.81977e-10
-2.72088e-08
-7.52306e-10
-2.6389e-08
-8.19742e-10
-2.55053e-08
-8.8378e-10
-2.45614e-08
-9.43916e-10
-2.35617e-08
-9.99652e-10
-2.25112e-08
-1.05051e-09
-2.14152e-08
-1.09603e-09
-2.02794e-08
-1.13578e-09
-1.911e-08
-1.16935e-09
-1.79136e-08
-1.19639e-09
-1.66971e-08
-1.21655e-09
-1.54675e-08
-1.22958e-09
-1.42323e-08
-1.23525e-09
-1.29989e-08
-1.2334e-09
-1.1775e-08
-1.2239e-09
-1.05682e-08
-1.20672e-09
-9.38638e-09
-1.18186e-09
-8.23698e-09
-1.14941e-09
-7.12748e-09
-1.10951e-09
-6.06512e-09
-1.06236e-09
-5.05687e-09
-1.00825e-09
-4.10934e-09
-9.47525e-10
-3.22876e-09
-8.80587e-10
-2.42084e-09
-8.07917e-10
-1.69077e-09
-7.30069e-10
-1.04311e-09
-6.47667e-10
-4.81702e-10
-5.61417e-10
-9.57773e-12
-4.72127e-10
3.71174e-10
-3.80752e-10
6.59518e-10
-2.88346e-10
8.55744e-10
-1.96232e-10
9.6176e-10
-1.06017e-10
9.81521e-10
-1.97581e-11
9.21714e-10
5.98092e-11
7.92811e-10
1.28901e-10
6.10662e-10
1.82149e-10
3.98781e-10
2.11883e-10
1.91921e-10
2.06861e-10
4.08455e-11
1.51075e-10
4.08455e-11
1.47826e-10
-2.20636e-10
3.73689e-10
-3.75346e-10
5.42783e-10
-3.10958e-10
5.6573e-10
-1.07951e-10
3.8675e-10
1.76543e-10
-2.5239e-11
5.03829e-10
-6.83809e-10
8.48287e-10
-1.59081e-09
1.19344e-09
-2.74025e-09
1.52863e-09
-4.12108e-09
1.84725e-09
-5.71906e-09
2.14525e-09
-7.5181e-09
2.42035e-09
-9.50114e-09
2.67144e-09
-1.16507e-08
2.89823e-09
-1.39496e-08
3.10095e-09
-1.63805e-08
3.28023e-09
-1.89272e-08
3.4369e-09
-2.15738e-08
3.57192e-09
-2.43051e-08
3.68636e-09
-2.71069e-08
3.78125e-09
-2.99653e-08
3.85764e-09
-3.28675e-08
3.91651e-09
-3.58012e-08
3.95879e-09
-3.87547e-08
3.9853e-09
-4.17168e-08
3.99679e-09
-4.46767e-08
3.99393e-09
-4.76243e-08
3.97726e-09
-5.05496e-08
3.94726e-09
-5.3443e-08
3.90431e-09
-5.62949e-08
3.84873e-09
-5.90962e-08
3.78074e-09
-6.18378e-08
3.70051e-09
-6.45105e-08
3.60816e-09
-6.71055e-08
3.50375e-09
-6.96138e-08
3.38733e-09
-7.20265e-08
3.25892e-09
-7.43347e-08
3.11854e-09
-7.65296e-08
2.96622e-09
-7.86023e-08
2.80199e-09
-8.05441e-08
2.6259e-09
-8.23464e-08
2.43806e-09
-8.40005e-08
2.23866e-09
-8.54981e-08
2.0279e-09
-8.68312e-08
1.80609e-09
-8.79918e-08
1.5736e-09
-8.89725e-08
1.3309e-09
-8.97662e-08
1.07856e-09
-9.03664e-08
8.17269e-10
-9.07672e-08
5.47795e-10
-9.09631e-08
2.71042e-10
-9.09497e-08
-1.19917e-11
-9.07233e-08
-3.00187e-10
-9.0281e-08
-5.92301e-10
-8.9621e-08
-8.8699e-10
-8.87427e-08
-1.1828e-09
-8.76462e-08
-1.47819e-09
-8.63334e-08
-1.77152e-09
-8.4807e-08
-2.06108e-09
-8.30712e-08
-2.34508e-09
-8.11315e-08
-2.62169e-09
-7.89947e-08
-2.88904e-09
-7.66693e-08
-3.14523e-09
-7.41647e-08
-3.38837e-09
-7.1492e-08
-3.61658e-09
-6.86637e-08
-3.82802e-09
-6.56932e-08
-4.02091e-09
-6.25957e-08
-4.19356e-09
-5.93872e-08
-4.34434e-09
-5.60847e-08
-4.47179e-09
-5.27066e-08
-4.57456e-09
-4.92717e-08
-4.65145e-09
-4.57998e-08
-4.70146e-09
-4.23113e-08
-4.72379e-09
-3.88268e-08
-4.71781e-09
-3.53676e-08
-4.68314e-09
-3.19547e-08
-4.61962e-09
-2.86092e-08
-4.52732e-09
-2.53521e-08
-4.40656e-09
-2.22037e-08
-4.25791e-09
-1.91838e-08
-4.08221e-09
-1.63116e-08
-3.88051e-09
-1.36049e-08
-3.65416e-09
-1.10808e-08
-3.40475e-09
-8.75451e-09
-3.13417e-09
-6.64003e-09
-2.84457e-09
-4.7493e-09
-2.5384e-09
-3.09224e-09
-2.21847e-09
-1.67636e-09
-1.88801e-09
-5.06407e-10
-1.5507e-09
4.1609e-10
-1.21085e-09
1.09341e-09
-8.73553e-10
1.53243e-09
-5.45024e-10
1.74563e-09
-2.32963e-10
1.75261e-09
5.28243e-11
1.58193e-09
2.99586e-10
1.27359e-09
4.90502e-10
8.8191e-10
6.0356e-10
4.78199e-10
6.10565e-10
1.50541e-10
4.78732e-10
1.91385e-10
1.43134e-10
-3.63765e-10
3.12605e-10
-5.44815e-10
3.52754e-10
-3.51107e-10
1.58769e-10
8.60279e-11
-3.38865e-10
6.7418e-10
-1.18187e-09
1.34681e-09
-2.39069e-09
2.05712e-09
-3.97025e-09
2.77298e-09
-5.91436e-09
3.47274e-09
-8.20912e-09
4.14202e-09
-1.08354e-08
4.77157e-09
-1.37709e-08
5.35576e-09
-1.69909e-08
5.89148e-09
-2.047e-08
6.37739e-09
-2.41825e-08
6.81344e-09
-2.81027e-08
7.2004e-09
-3.22054e-08
7.53963e-09
-3.64664e-08
7.83286e-09
-4.0862e-08
8.08202e-09
-4.53699e-08
8.28912e-09
-4.99684e-08
8.45617e-09
-5.4637e-08
8.58514e-09
-5.93561e-08
8.67785e-09
-6.41068e-08
8.73601e-09
-6.88712e-08
8.76115e-09
-7.36319e-08
8.75462e-09
-7.83722e-08
8.71759e-09
-8.3076e-08
8.65107e-09
-8.77276e-08
8.55588e-09
-9.23115e-08
8.43267e-09
-9.68128e-08
8.28198e-09
-1.01216e-07
8.10419e-09
-1.05508e-07
7.8996e-09
-1.09673e-07
7.66839e-09
-1.13696e-07
7.41071e-09
-1.17564e-07
7.12666e-09
-1.21261e-07
6.81634e-09
-1.24775e-07
6.47986e-09
-1.2809e-07
6.11736e-09
-1.31194e-07
5.72906e-09
-1.34071e-07
5.31525e-09
-1.36708e-07
4.87635e-09
-1.39093e-07
4.41291e-09
-1.41213e-07
3.92565e-09
-1.43055e-07
3.41545e-09
-1.44607e-07
2.88339e-09
-1.4586e-07
2.33074e-09
-1.46801e-07
1.75902e-09
-1.47423e-07
1.16996e-09
-1.47718e-07
5.65545e-10
-1.47678e-07
-5.20174e-11
-1.47298e-07
-6.80282e-10
-1.46574e-07
-1.31656e-09
-1.45503e-07
-1.95791e-09
-1.44084e-07
-2.60122e-09
-1.42319e-07
-3.24315e-09
-1.40211e-07
-3.88015e-09
-1.37763e-07
-4.50856e-09
-1.34984e-07
-5.12454e-09
-1.31881e-07
-5.72417e-09
-1.28467e-07
-6.30343e-09
-1.24754e-07
-6.8583e-09
-1.20757e-07
-7.38472e-09
-1.16495e-07
-7.8787e-09
-1.11987e-07
-8.33632e-09
-1.07254e-07
-8.7538e-09
-1.0232e-07
-9.12753e-09
-9.72104e-08
-9.45408e-09
-9.19519e-08
-9.73034e-09
-8.6573e-08
-9.95345e-09
-8.11035e-08
-1.01209e-08
-7.55744e-08
-1.02306e-08
-7.00174e-08
-1.02808e-08
-6.44651e-08
-1.02702e-08
-5.89502e-08
-1.0198e-08
-5.35058e-08
-1.0064e-08
-4.81648e-08
-9.86832e-09
-4.29596e-08
-9.61167e-09
-3.79222e-08
-9.29534e-09
-3.30833e-08
-8.92112e-09
-2.84724e-08
-8.4914e-09
-2.41175e-08
-8.00911e-09
-2.00444e-08
-7.47778e-09
-1.62771e-08
-6.90151e-09
-1.28366e-08
-6.28507e-09
-9.74111e-09
-5.63389e-09
-7.00542e-09
-4.95417e-09
-4.64045e-09
-4.25298e-09
-2.65271e-09
-3.53845e-09
-1.04358e-09
-2.81997e-09
1.91476e-10
-2.10861e-09
1.06399e-09
-1.41754e-09
1.59381e-09
-7.62781e-10
1.81072e-09
-1.64077e-10
1.75643e-09
3.53875e-10
1.4869e-09
7.60035e-10
1.07468e-09
1.01577e-09
6.10898e-10
1.07435e-09
2.06151e-10
8.83478e-10
3.97532e-10
8.74531e-11
-4.51219e-10
1.12117e-10
-5.69467e-10
-8.19474e-11
-1.57047e-10
-6.01612e-10
6.05713e-10
-1.51961e-09
1.59216e-09
-2.88096e-09
2.70818e-09
-4.70884e-09
3.88498e-09
-7.00942e-09
5.07356e-09
-9.77616e-09
6.23949e-09
-1.29932e-08
7.35905e-09
-1.6638e-08
8.41636e-09
-2.06834e-08
9.40122e-09
-2.50995e-08
1.03076e-08
-2.98546e-08
1.11324e-08
-3.4916e-08
1.18749e-08
-4.02512e-08
1.25356e-08
-4.58279e-08
1.31163e-08
-5.16144e-08
1.36194e-08
-5.758e-08
1.40477e-08
-6.36951e-08
1.44043e-08
-6.99313e-08
1.46923e-08
-7.62609e-08
1.49148e-08
-8.26578e-08
1.50747e-08
-8.90966e-08
1.51748e-08
-9.5553e-08
1.52176e-08
-1.02004e-07
1.52052e-08
-1.08426e-07
1.51395e-08
-1.14797e-07
1.50224e-08
-1.21096e-07
1.48551e-08
-1.27302e-07
1.46389e-08
-1.33395e-07
1.43745e-08
-1.39353e-07
1.40628e-08
-1.45158e-07
1.37042e-08
-1.50789e-07
1.32991e-08
-1.56226e-07
1.28479e-08
-1.6145e-07
1.23509e-08
-1.66442e-07
1.18082e-08
-1.71182e-07
1.12202e-08
-1.75652e-07
1.05871e-08
-1.79833e-07
9.90954e-09
-1.83705e-07
9.18802e-09
-1.87252e-07
8.42337e-09
-1.90456e-07
7.61666e-09
-1.933e-07
6.76917e-09
-1.95767e-07
5.88254e-09
-1.97842e-07
4.95868e-09
-1.99511e-07
3.99989e-09
-2.00761e-07
3.00883e-09
-2.0158e-07
1.98853e-09
-2.01956e-07
9.42442e-10
-2.01883e-07
-1.25595e-10
-2.01352e-07
-1.21133e-09
-2.00358e-07
-2.31013e-09
-1.98899e-07
-3.41698e-09
-1.96974e-07
-4.52648e-09
-1.94584e-07
-5.63292e-09
-1.91734e-07
-6.73028e-09
-1.8843e-07
-7.81226e-09
-1.84683e-07
-8.87235e-09
-1.80503e-07
-9.90387e-09
-1.75906e-07
-1.09e-08
-1.70911e-07
-1.18539e-08
-1.65537e-07
-1.27587e-08
-1.59808e-07
-1.36077e-08
-1.5375e-07
-1.43942e-08
-1.47392e-07
-1.51118e-08
-1.40765e-07
-1.57544e-08
-1.33903e-07
-1.63163e-08
-1.26841e-07
-1.67921e-08
-1.19617e-07
-1.71772e-08
-1.12271e-07
-1.74672e-08
-1.04843e-07
-1.76586e-08
-9.73751e-08
-1.77486e-08
-8.99104e-08
-1.77349e-08
-8.2492e-08
-1.76164e-08
-7.51635e-08
-1.73925e-08
-6.79682e-08
-1.70636e-08
-6.09489e-08
-1.6631e-08
-5.41472e-08
-1.60969e-08
-4.76038e-08
-1.54645e-08
-4.13573e-08
-1.47379e-08
-3.54442e-08
-1.39222e-08
-2.98986e-08
-1.30235e-08
-2.47512e-08
-1.20489e-08
-2.00296e-08
-1.10067e-08
-1.57571e-08
-9.90635e-09
-1.19527e-08
-8.75861e-09
-8.62999e-09
-7.57567e-09
-5.79691e-09
-6.37154e-09
-3.45461e-09
-5.16227e-09
-1.59669e-09
-3.96653e-09
-2.07946e-10
-2.80629e-09
7.36937e-10
-1.70766e-09
1.27494e-09
-7.02072e-10
1.4565e-09
1.72307e-10
1.34749e-09
8.69039e-10
1.0313e-09
1.33196e-09
6.10993e-10
1.49466e-09
2.12713e-10
1.28175e-09
6.10242e-10
5.58551e-12
-4.56806e-10
-1.7295e-10
-3.90938e-10
-6.74661e-10
3.44667e-10
-1.59845e-09
1.52949e-09
-3.01262e-09
3.00635e-09
-4.96013e-09
4.65568e-09
-7.46298e-09
6.38784e-09
-1.05264e-08
8.13701e-09
-1.41425e-08
9.85561e-09
-1.82934e-08
1.15099e-08
-2.29534e-08
1.30764e-08
-2.80919e-08
1.45397e-08
-3.36745e-08
1.58902e-08
-3.96644e-08
1.71223e-08
-4.60237e-08
1.82342e-08
-5.27139e-08
1.92258e-08
-5.96968e-08
2.00992e-08
-6.69346e-08
2.08571e-08
-7.43904e-08
2.15034e-08
-8.20283e-08
2.20422e-08
-8.98136e-08
2.24776e-08
-9.77129e-08
2.2814e-08
-1.05694e-07
2.30555e-08
-1.13725e-07
2.3206e-08
-1.21776e-07
2.32689e-08
-1.29818e-07
2.32475e-08
-1.37824e-07
2.31447e-08
-1.45764e-07
2.29628e-08
-1.53613e-07
2.27039e-08
-1.61344e-07
2.23698e-08
-1.68931e-07
2.19617e-08
-1.76349e-07
2.14809e-08
-1.83573e-07
2.09282e-08
-1.90578e-07
2.03042e-08
-1.9734e-07
1.96096e-08
-2.03834e-07
1.88448e-08
-2.10036e-07
1.80102e-08
-2.15922e-07
1.71066e-08
-2.21469e-07
1.61343e-08
-2.26654e-07
1.50944e-08
-2.31454e-07
1.39879e-08
-2.35847e-07
1.28161e-08
-2.39811e-07
1.15807e-08
-2.43325e-07
1.02839e-08
-2.46371e-07
8.92814e-09
-2.48929e-07
7.51654e-09
-2.50982e-07
6.05263e-09
-2.52513e-07
4.54052e-09
-2.5351e-07
2.98492e-09
-2.53958e-07
1.39108e-09
-2.53849e-07
-2.35129e-10
-2.53173e-07
-1.88724e-09
-2.51925e-07
-3.55821e-09
-2.50101e-07
-5.24044e-09
-2.47702e-07
-6.9258e-09
-2.44729e-07
-8.60565e-09
-2.41189e-07
-1.02709e-08
-2.37089e-07
-1.19122e-08
-2.32441e-07
-1.35197e-08
-2.27262e-07
-1.50833e-08
-2.21569e-07
-1.65929e-08
-2.15385e-07
-1.80383e-08
-2.08734e-07
-1.94091e-08
-2.01647e-07
-2.06953e-08
-1.94154e-07
-2.1887e-08
-1.86291e-07
-2.29746e-08
-1.78096e-07
-2.39491e-08
-1.69611e-07
-2.48019e-08
-1.60878e-07
-2.5525e-08
-1.51944e-07
-2.61115e-08
-1.42856e-07
-2.6555e-08
-1.33664e-07
-2.68502e-08
-1.2442e-07
-2.6993e-08
-1.15175e-07
-2.69801e-08
-1.05981e-07
-2.68097e-08
-9.68927e-08
-2.64811e-08
-8.79614e-08
-2.59949e-08
-7.92392e-08
-2.53532e-08
-7.07768e-08
-2.45594e-08
-6.26232e-08
-2.36182e-08
-5.48252e-08
-2.2536e-08
-4.74269e-08
-2.13205e-08
-4.04693e-08
-1.9981e-08
-3.39897e-08
-1.85285e-08
-2.8021e-08
-1.69754e-08
-2.25911e-08
-1.53362e-08
-1.77226e-08
-1.36271e-08
-1.34317e-08
-1.18666e-08
-9.72749e-09
-1.00757e-08
-6.61131e-09
-8.27845e-09
-4.07551e-09
-6.50233e-09
-2.10247e-09
-4.77934e-09
-6.63248e-10
-3.14687e-09
2.83718e-10
-1.64904e-09
7.942e-10
-3.38179e-10
9.39829e-10
7.23411e-10
8.10034e-10
1.46177e-09
5.14465e-10
1.79023e-09
1.87277e-10
1.60894e-09
7.97519e-10
-8.95601e-11
-3.6725e-10
-5.06556e-10
2.60756e-11
-1.36442e-09
1.20251e-09
-2.74673e-09
2.91181e-09
-4.71191e-09
4.97152e-09
-7.2964e-09
7.24017e-09
-1.05179e-08
9.6093e-09
-1.43783e-08
1.19975e-08
-1.88671e-08
1.43444e-08
-2.39635e-08
1.66062e-08
-2.9639e-08
1.8752e-08
-3.58595e-08
2.07603e-08
-4.25869e-08
2.26175e-08
-4.97801e-08
2.43155e-08
-5.73966e-08
2.58507e-08
-6.53933e-08
2.72225e-08
-7.37266e-08
2.84325e-08
-8.23537e-08
2.94842e-08
-9.12322e-08
3.0382e-08
-1.00321e-07
3.11309e-08
-1.0958e-07
3.17363e-08
-1.18969e-07
3.22038e-08
-1.28452e-07
3.25386e-08
-1.37992e-07
3.27458e-08
-1.47553e-07
3.283e-08
-1.57101e-07
3.27956e-08
-1.66603e-07
3.26462e-08
-1.76025e-07
3.23853e-08
-1.85337e-07
3.20155e-08
-1.94506e-07
3.15392e-08
-2.03503e-07
3.09584e-08
-2.12297e-07
3.02746e-08
-2.20858e-07
2.94892e-08
-2.29157e-07
2.86031e-08
-2.37164e-07
2.76172e-08
-2.44852e-07
2.65324e-08
-2.52191e-07
2.53494e-08
-2.59154e-07
2.40692e-08
-2.65712e-07
2.26927e-08
-2.71839e-07
2.12213e-08
-2.77508e-07
1.96567e-08
-2.82692e-07
1.80008e-08
-2.87368e-07
1.62563e-08
-2.9151e-07
1.44262e-08
-2.95097e-07
1.25143e-08
-2.98105e-07
1.05249e-08
-3.00515e-07
8.46312e-09
-3.0231e-07
6.33483e-09
-3.03471e-07
4.14665e-09
-3.03986e-07
1.90605e-09
-3.03843e-07
-3.78732e-10
-3.03031e-07
-2.69862e-09
-3.01546e-07
-5.04377e-09
-2.99383e-07
-7.40355e-09
-2.96542e-07
-9.76663e-09
-2.93027e-07
-1.2121e-08
-2.88843e-07
-1.44541e-08
-2.84003e-07
-1.67527e-08
-2.78519e-07
-1.90033e-08
-2.7241e-07
-2.11921e-08
-2.65698e-07
-2.33049e-08
-2.58409e-07
-2.53276e-08
-2.50572e-07
-2.72459e-08
-2.42221e-07
-2.90461e-08
-2.33394e-07
-3.07143e-08
-2.24131e-07
-3.22375e-08
-2.14477e-07
-3.36032e-08
-2.04479e-07
-3.47995e-08
-1.94189e-07
-3.58156e-08
-1.83659e-07
-3.66416e-08
-1.72945e-07
-3.72692e-08
-1.62104e-07
-3.76908e-08
-1.51196e-07
-3.79008e-08
-1.40281e-07
-3.78949e-08
-1.29421e-07
-3.76705e-08
-1.18675e-07
-3.72267e-08
-1.08105e-07
-3.65645e-08
-9.77718e-08
-3.56868e-08
-8.77329e-08
-3.45983e-08
-7.80452e-08
-3.33059e-08
-6.87629e-08
-3.18182e-08
-5.9937e-08
-3.01464e-08
-5.16147e-08
-2.83033e-08
-4.3839e-08
-2.63042e-08
-3.66477e-08
-2.41667e-08
-3.00731e-08
-2.19108e-08
-2.4141e-08
-1.95592e-08
-1.887e-08
-1.71376e-08
-1.42708e-08
-1.46749e-08
-1.03453e-08
-1.2204e-08
-7.08536e-09
-9.76224e-09
-4.47221e-09
-7.39249e-09
-2.47496e-09
-5.14412e-09
-1.04958e-09
-3.07441e-09
-1.37604e-10
-1.25016e-09
3.35326e-10
2.50489e-10
4.61097e-10
1.336e-09
3.51432e-10
1.89989e-09
1.41701e-10
1.81867e-09
9.39221e-10
-1.90533e-10
-1.76713e-10
-8.65593e-10
7.01123e-10
-2.10946e-09
2.44639e-09
-3.98607e-09
4.78841e-09
-6.53999e-09
7.52543e-09
-9.79787e-09
1.0498e-08
-1.37703e-08
1.35817e-08
-1.8454e-08
1.66812e-08
-2.38342e-08
1.97245e-08
-2.98864e-08
2.26584e-08
-3.65787e-08
2.54443e-08
-4.38736e-08
2.80552e-08
-5.17293e-08
3.04732e-08
-6.01011e-08
3.26873e-08
-6.89425e-08
3.46921e-08
-7.82059e-08
3.64859e-08
-8.78436e-08
3.80702e-08
-9.78081e-08
3.94487e-08
-1.08052e-07
4.06263e-08
-1.18531e-07
4.16091e-08
-1.29198e-07
4.24034e-08
-1.4001e-07
4.3016e-08
-1.50925e-07
4.34533e-08
-1.619e-07
4.37216e-08
-1.72897e-07
4.38267e-08
-1.83876e-07
4.3774e-08
-1.94798e-07
4.35683e-08
-2.05626e-07
4.32137e-08
-2.16324e-07
4.27138e-08
-2.26857e-07
4.20717e-08
-2.37188e-07
4.12899e-08
-2.47284e-07
4.03705e-08
-2.5711e-07
3.93153e-08
-2.66633e-07
3.81257e-08
-2.75819e-07
3.68029e-08
-2.84634e-07
3.53483e-08
-2.93048e-07
3.3763e-08
-3.01027e-07
3.20483e-08
-3.0854e-07
3.02058e-08
-3.15557e-07
2.82375e-08
-3.22046e-07
2.61456e-08
-3.27978e-07
2.39332e-08
-3.33325e-07
2.16036e-08
-3.3806e-07
1.91613e-08
-3.42157e-07
1.66113e-08
-3.45592e-07
1.39594e-08
-3.48341e-07
1.12127e-08
-3.50386e-07
8.37895e-09
-3.51706e-07
5.46706e-09
-3.52287e-07
2.48696e-09
-3.52115e-07
-5.50374e-10
-3.51181e-07
-3.63291e-09
-3.49477e-07
-6.7476e-09
-3.47e-07
-9.88043e-09
-3.4375e-07
-1.30164e-08
-3.39732e-07
-1.61398e-08
-3.34952e-07
-1.9234e-08
-3.29423e-07
-2.22817e-08
-3.23161e-07
-2.52652e-08
-3.16187e-07
-2.81662e-08
-3.08525e-07
-3.09663e-08
-3.00206e-07
-3.36469e-08
-2.91262e-07
-3.61896e-08
-2.81732e-07
-3.8576e-08
-2.71658e-07
-4.07884e-08
-2.61086e-07
-4.28095e-08
-2.50067e-07
-4.4623e-08
-2.38652e-07
-4.62135e-08
-2.26901e-07
-4.75669e-08
-2.14873e-07
-4.86703e-08
-2.02629e-07
-4.95126e-08
-1.90236e-07
-5.00843e-08
-1.77759e-07
-5.03778e-08
-1.65266e-07
-5.03877e-08
-1.52826e-07
-5.01105e-08
-1.40507e-07
-4.95452e-08
-1.28379e-07
-4.86932e-08
-1.16507e-07
-4.75582e-08
-1.04959e-07
-4.61467e-08
-9.37973e-08
-4.44676e-08
-8.30831e-08
-4.25325e-08
-7.28735e-08
-4.03559e-08
-6.32217e-08
-3.79551e-08
-5.41758e-08
-3.53501e-08
-4.57783e-08
-3.25642e-08
-3.80656e-08
-2.96236e-08
-3.10666e-08
-2.65582e-08
-2.48027e-08
-2.34015e-08
-1.92863e-08
-2.01913e-08
-1.45205e-08
-1.69699e-08
-1.04975e-08
-1.37852e-08
-7.19857e-09
-1.06914e-08
-4.59225e-09
-7.75044e-09
-2.63383e-09
-5.03283e-09
-1.26419e-09
-2.6198e-09
-4.08687e-10
-6.05007e-10
2.41792e-11
9.03135e-10
1.44592e-10
1.77948e-09
8.38948e-11
1.87937e-09
1.02311e-09
-2.93159e-10
1.16435e-10
-1.23565e-09
1.64363e-09
-2.88209e-09
4.09283e-09
-5.27462e-09
7.18094e-09
-8.44152e-09
1.06923e-08
-1.23972e-08
1.44538e-08
-1.71432e-08
1.83277e-08
-2.2669e-08
2.2207e-08
-2.89542e-08
2.60098e-08
-3.59699e-08
2.96741e-08
-4.368e-08
3.31545e-08
-5.20433e-08
3.64185e-08
-6.10143e-08
3.94442e-08
-7.05447e-08
4.22177e-08
-8.05843e-08
4.47317e-08
-9.10819e-08
4.69834e-08
-1.01986e-07
4.8974e-08
-1.13244e-07
5.07071e-08
-1.24806e-07
5.21884e-08
-1.36622e-07
5.34246e-08
-1.48642e-07
5.44232e-08
-1.60818e-07
5.5192e-08
-1.73103e-07
5.57386e-08
-1.85452e-07
5.60704e-08
-1.9782e-07
5.61946e-08
-2.10163e-07
5.61175e-08
-2.2244e-07
5.58449e-08
-2.34608e-07
5.53818e-08
-2.46627e-07
5.47328e-08
-2.58457e-07
5.39016e-08
-2.70058e-07
5.28914e-08
-2.81393e-07
5.17048e-08
-2.92422e-07
5.03442e-08
-3.03107e-07
4.88115e-08
-3.13413e-07
4.71085e-08
-3.23301e-07
4.52366e-08
-3.32736e-07
4.31978e-08
-3.41682e-07
4.09938e-08
-3.50103e-07
3.86269e-08
-3.57965e-07
3.60996e-08
-3.65234e-07
3.34152e-08
-3.71879e-07
3.05776e-08
-3.77866e-07
2.75914e-08
-3.83167e-07
2.44623e-08
-3.87753e-07
2.1197e-08
-3.91597e-07
1.7803e-08
-3.94673e-07
1.42894e-08
-3.96961e-07
1.06662e-08
-3.98439e-07
6.94494e-09
-3.9909e-07
3.13818e-09
-3.989e-07
-7.40012e-10
-3.97859e-07
-4.67434e-09
-3.95958e-07
-8.64824e-09
-3.93195e-07
-1.26439e-08
-3.89569e-07
-1.66424e-08
-3.85085e-07
-2.06237e-08
-3.79752e-07
-2.45669e-08
-3.73583e-07
-2.84502e-08
-3.66598e-07
-3.22511e-08
-3.58817e-07
-3.59468e-08
-3.50269e-07
-3.9514e-08
-3.40987e-07
-4.29292e-08
-3.31007e-07
-4.61693e-08
-3.20372e-07
-4.92112e-08
-3.09128e-07
-5.20325e-08
-2.97326e-07
-5.46117e-08
-2.85021e-07
-5.69281e-08
-2.72272e-07
-5.89625e-08
-2.59142e-07
-6.0697e-08
-2.45696e-07
-6.21156e-08
-2.32005e-07
-6.32042e-08
-2.18138e-07
-6.3951e-08
-2.04169e-07
-6.43464e-08
-1.90173e-07
-6.43835e-08
-1.76226e-07
-6.40582e-08
-1.62402e-07
-6.33692e-08
-1.48777e-07
-6.23181e-08
-1.35425e-07
-6.09099e-08
-1.22419e-07
-5.91526e-08
-1.09829e-07
-5.70576e-08
-9.77219e-08
-5.46397e-08
-8.61606e-08
-5.19172e-08
-7.52038e-08
-4.89119e-08
-6.49045e-08
-4.56493e-08
-5.531e-08
-4.21587e-08
-4.64604e-08
-3.84732e-08
-3.83881e-08
-3.46304e-08
-3.11174e-08
-3.06723e-08
-2.46629e-08
-2.66458e-08
-1.90294e-08
-2.26034e-08
-1.42104e-08
-1.86041e-08
-1.01881e-08
-1.47137e-08
-6.93184e-09
-1.10067e-08
-4.3976e-09
-7.56707e-09
-2.52733e-09
-4.49007e-09
-1.24798e-09
-1.88436e-09
-4.7066e-10
1.25818e-10
-8.96155e-11
1.39844e-09
1.91451e-11
1.77061e-09
1.04226e-09
-3.95134e-10
5.11571e-10
-1.60784e-09
2.85633e-09
-3.66419e-09
6.14916e-09
-6.58387e-09
1.01006e-08
-1.03775e-08
1.4486e-08
-1.50458e-08
1.91221e-08
-2.05794e-08
2.38612e-08
-2.69594e-08
2.8587e-08
-3.41585e-08
3.32089e-08
-4.21422e-08
3.76578e-08
-5.08699e-08
4.18821e-08
-6.02959e-08
4.58445e-08
-7.03711e-08
4.95194e-08
-8.10434e-08
5.28901e-08
-9.22591e-08
5.59474e-08
-1.03963e-07
5.86877e-08
-1.16101e-07
6.11116e-08
-1.28617e-07
6.32229e-08
-1.41456e-07
6.50276e-08
-1.54564e-07
6.65333e-08
-1.67889e-07
6.77483e-08
-1.81379e-07
6.86817e-08
-1.94983e-07
6.93421e-08
-2.0865e-07
6.97382e-08
-2.22334e-07
6.98781e-08
-2.35986e-07
6.97694e-08
-2.4956e-07
6.94187e-08
-2.6301e-07
6.88323e-08
-2.76293e-07
6.80153e-08
-2.89363e-07
6.69723e-08
-3.02179e-07
6.57071e-08
-3.14697e-07
6.42231e-08
-3.26876e-07
6.25231e-08
-3.38674e-07
6.06095e-08
-3.5005e-07
5.84846e-08
-3.60964e-07
5.61505e-08
-3.71376e-07
5.36096e-08
-3.81247e-07
5.08643e-08
-3.90537e-07
4.79175e-08
-3.99211e-07
4.47728e-08
-4.07229e-07
4.14341e-08
-4.14558e-07
3.79066e-08
-4.21163e-07
3.41962e-08
-4.27011e-07
3.03101e-08
-4.32071e-07
2.62566e-08
-4.36313e-07
2.20454e-08
-4.39711e-07
1.76876e-08
-4.42241e-07
1.31959e-08
-4.4388e-07
8.58433e-09
-4.44611e-07
3.86869e-09
-4.44417e-07
-9.33742e-10
-4.43287e-07
-5.80407e-09
-4.41214e-07
-1.07219e-08
-4.38192e-07
-1.56653e-08
-4.34223e-07
-2.06111e-08
-4.29312e-07
-2.55347e-08
-4.23469e-07
-3.04104e-08
-4.16707e-07
-3.52116e-08
-4.09048e-07
-3.99108e-08
-4.00515e-07
-4.44799e-08
-3.91138e-07
-4.88904e-08
-3.80954e-07
-5.3114e-08
-3.70001e-07
-5.71219e-08
-3.58326e-07
-6.08864e-08
-3.45978e-07
-6.43798e-08
-3.33014e-07
-6.7576e-08
-3.19493e-07
-7.04497e-08
-3.05478e-07
-7.29773e-08
-2.91038e-07
-7.51371e-08
-2.76244e-07
-7.69095e-08
-2.61171e-07
-7.82773e-08
-2.45896e-07
-7.92261e-08
-2.30498e-07
-7.97441e-08
-2.15059e-07
-7.98229e-08
-1.99659e-07
-7.94575e-08
-1.84382e-07
-7.86462e-08
-1.69309e-07
-7.73912e-08
-1.54521e-07
-7.56984e-08
-1.40096e-07
-7.35777e-08
-1.2611e-07
-7.10432e-08
-1.12637e-07
-6.81129e-08
-9.97451e-08
-6.48092e-08
-8.74981e-08
-6.11589e-08
-7.59543e-08
-5.71932e-08
-6.51652e-08
-5.29478e-08
-5.51751e-08
-4.84633e-08
-4.60201e-08
-4.37854e-08
-3.77274e-08
-3.89649e-08
-3.03147e-08
-3.40585e-08
-2.37888e-08
-2.91293e-08
-1.81455e-08
-2.42474e-08
-1.33687e-08
-1.94905e-08
-9.42965e-09
-1.49458e-08
-6.28626e-09
-1.07105e-08
-3.88285e-09
-6.89348e-09
-2.1495e-09
-3.61771e-09
-1.00164e-09
-1.02204e-09
-3.3973e-10
7.3654e-10
-4.9114e-11
1.47999e-09
9.93146e-10
-4.95249e-10
1.00681e-09
-1.97684e-09
4.33793e-09
-4.44413e-09
8.61646e-09
-7.89469e-09
1.35512e-08
-1.2321e-08
1.89123e-08
-1.7709e-08
2.451e-08
-2.40374e-08
3.01896e-08
-3.12778e-08
3.58274e-08
-3.93951e-08
4.13262e-08
-4.83483e-08
4.6611e-08
-5.80914e-08
5.16252e-08
-6.85742e-08
5.63273e-08
-7.97433e-08
6.06884e-08
-9.15429e-08
6.46897e-08
-1.03916e-07
6.83202e-08
-1.16803e-07
7.15754e-08
-1.30147e-07
7.44555e-08
-1.43889e-07
7.69646e-08
-1.5797e-07
7.9109e-08
-1.72334e-07
8.0897e-08
-1.86924e-07
8.23381e-08
-2.01684e-07
8.3442e-08
-2.16561e-07
8.42188e-08
-2.31501e-07
8.46782e-08
-2.46452e-07
8.48294e-08
-2.61364e-07
8.46811e-08
-2.76186e-07
8.4241e-08
-2.9087e-07
8.35161e-08
-3.05367e-07
8.25125e-08
-3.19631e-07
8.12356e-08
-3.33613e-07
7.96899e-08
-3.4727e-07
7.78793e-08
-3.60554e-07
7.58072e-08
-3.73421e-07
7.34767e-08
-3.85827e-07
7.08906e-08
-3.97728e-07
6.80516e-08
-4.09081e-07
6.49626e-08
-4.19843e-07
6.16268e-08
-4.29973e-07
5.80478e-08
-4.39431e-07
5.42302e-08
-4.48176e-07
5.01789e-08
-4.5617e-07
4.59004e-08
-4.63375e-07
4.1402e-08
-4.69758e-07
3.66925e-08
-4.75283e-07
3.17822e-08
-4.79921e-07
2.66827e-08
-4.83641e-07
2.14078e-08
-4.86418e-07
1.59726e-08
-4.88228e-07
1.03943e-08
-4.89051e-07
4.69187e-09
-4.88871e-07
-1.11385e-09
-4.87675e-07
-7.00013e-09
-4.85454e-07
-1.29424e-08
-4.82205e-07
-1.89145e-08
-4.77927e-07
-2.48885e-08
-4.72627e-07
-3.0835e-08
-4.66314e-07
-3.67232e-08
-4.59005e-07
-4.25213e-08
-4.50719e-07
-4.81964e-08
-4.41484e-07
-5.3715e-08
-4.31331e-07
-5.9043e-08
-4.20299e-07
-6.41465e-08
-4.08429e-07
-6.89913e-08
-3.95772e-07
-7.3544e-08
-3.8238e-07
-7.7772e-08
-3.68312e-07
-8.16436e-08
-3.53633e-07
-8.51288e-08
-3.38411e-07
-8.81995e-08
-3.22718e-07
-9.08297e-08
-3.06631e-07
-9.2996e-08
-2.90231e-07
-9.46777e-08
-2.736e-07
-9.58575e-08
-2.56822e-07
-9.65215e-08
-2.39985e-07
-9.66596e-08
-2.23178e-07
-9.62654e-08
-2.06487e-07
-9.53372e-08
-1.9e-07
-9.38774e-08
-1.73806e-07
-9.18931e-08
-1.57987e-07
-8.93961e-08
-1.42627e-07
-8.6403e-08
-1.27805e-07
-8.29355e-08
-1.13594e-07
-7.90204e-08
-1.00063e-07
-7.46896e-08
-8.72757e-08
-6.99802e-08
-7.52885e-08
-6.4935e-08
-6.41497e-08
-5.96022e-08
-5.38993e-08
-5.40357e-08
-4.45683e-08
-4.8296e-08
-3.61773e-08
-4.24496e-08
-2.87362e-08
-3.65704e-08
-2.22437e-08
-3.07399e-08
-1.66862e-08
-2.5048e-08
-1.20377e-08
-1.95943e-08
-8.25912e-09
-1.4489e-08
-5.29824e-09
-9.85436e-09
-3.08933e-09
-5.82662e-09
-1.5533e-09
-2.55807e-09
-5.97956e-10
-2.18808e-10
-1.18696e-10
1.00073e-09
8.74453e-10
-5.92848e-10
1.59966e-09
-2.33951e-09
6.0846e-09
-5.21466e-09
1.14916e-08
-9.19454e-09
1.75311e-08
-1.42535e-08
2.39713e-08
-2.03624e-08
3.06189e-08
-2.74872e-08
3.73145e-08
-3.55894e-08
4.39295e-08
-4.46251e-08
5.0362e-08
-5.45463e-08
5.65323e-08
-6.5301e-08
6.23798e-08
-7.68337e-08
6.78601e-08
-8.90867e-08
7.29414e-08
-1.02e-07
7.76031e-08
-1.15513e-07
8.18331e-08
-1.29564e-07
8.56262e-08
-1.44091e-07
8.89822e-08
-1.59032e-07
9.19055e-08
-1.74326e-07
9.44029e-08
-1.89912e-07
9.64835e-08
-2.05732e-07
9.81577e-08
-2.21726e-07
9.94362e-08
-2.37837e-07
1.0033e-07
-2.5401e-07
1.00851e-07
-2.70188e-07
1.01008e-07
-2.86318e-07
1.00811e-07
-3.02347e-07
1.0027e-07
-3.18223e-07
9.93915e-08
-3.33893e-07
9.81831e-08
-3.49308e-07
9.66508e-08
-3.64418e-07
9.47999e-08
-3.79174e-07
9.26348e-08
-3.93526e-07
9.01597e-08
-4.07428e-07
8.73781e-08
-4.20831e-07
8.42934e-08
-4.33688e-07
8.0909e-08
-4.45954e-07
7.72285e-08
-4.57583e-07
7.32557e-08
-4.6853e-07
6.89953e-08
-4.78753e-07
6.44525e-08
-4.88208e-07
5.96337e-08
-4.96854e-07
5.45466e-08
-5.04652e-07
4.91999e-08
-5.11564e-07
4.36044e-08
-5.17553e-07
3.77721e-08
-5.22588e-07
3.17173e-08
-5.26636e-07
2.54561e-08
-5.2967e-07
1.90064e-08
-5.31665e-07
1.23887e-08
-5.32598e-07
5.62543e-09
-5.32453e-07
-1.25887e-09
-5.31216e-07
-8.23739e-09
-5.28877e-07
-1.52812e-08
-5.25432e-07
-2.23595e-08
-5.20881e-07
-2.94394e-08
-5.1523e-07
-3.64865e-08
-5.08488e-07
-4.34645e-08
-5.00674e-07
-5.03361e-08
-4.91807e-07
-5.70627e-08
-4.81917e-07
-6.36049e-08
-4.71037e-07
-6.9923e-08
-4.59207e-07
-7.59769e-08
-4.46472e-07
-8.17267e-08
-4.32883e-07
-8.71331e-08
-4.18497e-07
-9.21578e-08
-4.03377e-07
-9.67638e-08
-3.8759e-07
-1.00916e-07
-3.71209e-07
-1.04581e-07
-3.54311e-07
-1.07728e-07
-3.36977e-07
-1.1033e-07
-3.19292e-07
-1.12362e-07
-3.01344e-07
-1.13805e-07
-2.83225e-07
-1.14641e-07
-2.65025e-07
-1.14859e-07
-2.46839e-07
-1.14451e-07
-2.28761e-07
-1.13415e-07
-2.10885e-07
-1.11754e-07
-1.93304e-07
-1.09475e-07
-1.76107e-07
-1.06592e-07
-1.59384e-07
-1.03126e-07
-1.43219e-07
-9.91011e-08
-1.2769e-07
-9.45485e-08
-1.12874e-07
-8.95057e-08
-9.88385e-08
-8.40161e-08
-8.56439e-08
-7.81296e-08
-7.33437e-08
-7.19023e-08
-6.19823e-08
-6.53971e-08
-5.15945e-08
-5.86837e-08
-4.22049e-08
-5.18393e-08
-3.38268e-08
-4.49484e-08
-2.64623e-08
-3.81043e-08
-2.01014e-08
-3.1409e-08
-1.47214e-08
-2.49743e-08
-1.02871e-08
-1.89233e-08
-6.75044e-09
-1.3391e-08
-4.05078e-09
-8.52627e-09
-2.11517e-09
-4.49368e-09
-8.59183e-10
-1.4748e-09
-1.88254e-10
3.29801e-10
6.86199e-10
-6.87647e-10
2.28731e-09
-2.69413e-09
8.09107e-09
-5.9714e-09
1.47689e-08
-1.04754e-08
2.20351e-08
-1.61629e-08
2.96588e-08
-2.29893e-08
3.74453e-08
-3.0908e-08
4.52331e-08
-3.98692e-08
5.28908e-08
-4.98202e-08
6.0313e-08
-6.07051e-08
6.74172e-08
-7.24655e-08
7.41402e-08
-8.50404e-08
8.04349e-08
-9.83671e-08
8.62682e-08
-1.12382e-07
9.16178e-08
-1.2702e-07
9.6471e-08
-1.42215e-07
1.00822e-07
-1.57904e-07
1.04671e-07
-1.74021e-07
1.08022e-07
-1.90502e-07
1.10884e-07
-2.07283e-07
1.13265e-07
-2.24303e-07
1.15177e-07
-2.41499e-07
1.16633e-07
-2.58813e-07
1.17644e-07
-2.76184e-07
1.18222e-07
-2.93555e-07
1.18379e-07
-3.10868e-07
1.18125e-07
-3.28068e-07
1.1747e-07
-3.451e-07
1.16423e-07
-3.6191e-07
1.14993e-07
-3.78443e-07
1.13184e-07
-3.94648e-07
1.11004e-07
-4.10471e-07
1.08458e-07
-4.25863e-07
1.05551e-07
-4.4077e-07
1.02286e-07
-4.55144e-07
9.86673e-08
-4.68935e-07
9.46995e-08
-4.82093e-07
9.03865e-08
-4.9457e-07
8.5733e-08
-5.06319e-07
8.07446e-08
-5.17294e-07
7.54275e-08
-5.2745e-07
6.97894e-08
-5.36742e-07
6.38392e-08
-5.4513e-07
5.75874e-08
-5.52572e-07
5.10466e-08
-5.59031e-07
4.4231e-08
-5.64471e-07
3.71572e-08
-5.68859e-07
2.9844e-08
-5.72165e-07
2.23124e-08
-5.74362e-07
1.45862e-08
-5.75428e-07
6.6913e-09
-5.75343e-07
-1.34364e-09
-5.74093e-07
-9.48758e-09
-5.71667e-07
-1.77071e-08
-5.68061e-07
-2.59663e-08
-5.63273e-07
-3.42274e-08
-5.57309e-07
-4.24504e-08
-5.5018e-07
-5.05935e-08
-5.41902e-07
-5.86134e-08
-5.32499e-07
-6.64657e-08
-5.21999e-07