/*--------------------------------*- C++ -*----------------------------------*\
| =========                 |                                                 |
| \\      /  F ield         | OpenFOAM: The Open Source CFD Toolbox           |
|  \\    /   O peration     | Version:  2512                                  |
|   \\  /    A nd           | Website:  www.openfoam.com                      |
|    \\/     M anipulation  |                                                 |
\*---------------------------------------------------------------------------*/
FoamFile
{
    version     2.0;
    format      ascii;
    arch        "LSB;label=32;scalar=64";
    class       volScalarField;
    location    "0.34";
    object      p;
}
// * * * * * * * * * * * * * * * * * * * * * * * * * * * * * * * * * * * * * //

dimensions      [0 2 -2 0 0 0 0];

internalField   nonuniform List<scalar> 
10000
(
2.59519e-09
4.26236e-06
-2.01496e-05
-7.50026e-05
-0.000154501
-0.000252377
-0.000362951
-0.000481204
-0.000602919
-0.000724562
-0.000843179
-0.000956339
-0.00106207
-0.00115879
-0.00124519
-0.00132023
-0.0013831
-0.00143318
-0.00146998
-0.00149315
-0.00150241
-0.00149759
-0.00147863
-0.00144547
-0.00139811
-0.00133659
-0.00126097
-0.00117136
-0.00106787
-0.000950651
-0.000819844
-0.000675608
-0.000518127
-0.000347624
-0.000164348
3.14346e-05
0.000239439
0.000459345
0.00069078
0.00093332
0.00118649
0.00144979
0.00172265
0.00200447
0.00229459
0.00259226
0.00289668
0.00320697
0.0035222
0.00384138
0.00416346
0.00448732
0.00481181
0.00513571
0.00545775
0.00577664
0.00609103
0.00639955
0.00670084
0.00699352
0.00727623
0.00754763
0.00780641
0.00805132
0.00828114
0.00849473
0.00869105
0.00886912
0.00902811
0.00916729
0.00928607
0.00938402
0.00946085
0.00951645
0.00955085
0.00956429
0.00955717
0.00953004
0.00948368
0.00941902
0.00933717
0.00923946
0.00912735
0.00900251
0.00886679
0.00872219
0.00857091
0.00841532
0.00825794
0.0081015
0.00794889
0.00780321
0.00766774
0.00754595
0.00744141
0.00735774
0.00729816
0.00726507
0.00725932
0.00727418
3.78852e-07
4.63139e-06
-1.77602e-05
-6.51484e-05
-0.000132371
-0.000215076
-0.000308991
-0.000410093
-0.000514819
-0.000620083
-0.000723234
-0.000822022
-0.000914572
-0.000999331
-0.001075
-0.00114053
-0.00119508
-0.00123798
-0.00126871
-0.00128685
-0.00129209
-0.00128421
-0.00126309
-0.00122864
-0.00118081
-0.0011196
-0.00104506
-0.000957249
-0.000856278
-0.000742261
-0.000615325
-0.000475615
-0.00032331
-0.000158625
1.81973e-05
0.000206899
0.000407199
0.000618783
0.000841279
0.00107427
0.0013173
0.00156986
0.00183142
0.00210138
0.00237909
0.00266385
0.00295487
0.00325132
0.0035523
0.00385687
0.00416401
0.00447269
0.0047818
0.00509019
0.00539667
0.00570001
0.00599895
0.00629221
0.00657851
0.00685657
0.00712511
0.0073829
0.00762872
0.00786141
0.00807985
0.008283
0.00846988
0.00863961
0.00879144
0.00892469
0.00903886
0.00913357
0.00920857
0.00926378
0.00929928
0.00931531
0.00931226
0.0092907
0.00925137
0.00919516
0.00912315
0.00903659
0.00893689
0.00882562
0.00870451
0.00857545
0.0084405
0.00830185
0.00816185
0.00802297
0.00788784
0.00775922
0.00763994
0.00753295
0.00744114
0.00736731
0.0073137
0.00728191
0.00727412
0.00728903
3.17195e-05
3.25924e-05
9.28191e-06
-3.51259e-05
-9.59637e-05
-0.000169829
-0.000253347
-0.000343191
-0.000436326
-0.000530062
-0.00062204
-0.00071022
-0.000792866
-0.000868498
-0.000935865
-0.000993942
-0.0010419
-0.00107907
-0.00110489
-0.00111894
-0.00112087
-0.00111046
-0.00108755
-0.00105201
-0.00100376
-0.000942792
-0.000869128
-0.000782825
-0.000683958
-0.000572621
-0.000448927
-0.000313014
-0.000165053
-5.25327e-06
0.000166157
0.000348931
0.000542796
0.000747439
0.000962495
0.00118755
0.00142217
0.00166585
0.00191809
0.0021783
0.00244585
0.00272006
0.00300017
0.00328537
0.00357481
0.00386756
0.00416268
0.00445916
0.00475595
0.00505195
0.00534603
0.00563701
0.00592369
0.00620487
0.00647933
0.00674585
0.00700324
0.00725033
0.00748598
0.0077091
0.00791862
0.00811359
0.00829308
0.00845628
0.00860247
0.00873107
0.00884159
0.0089337
0.00900718
0.00906199
0.00909822
0.0091161
0.00911605
0.00909862
0.00906451
0.00901461
0.00894995
0.00887172
0.00878127
0.00868009
0.00856983
0.00845229
0.00832937
0.00820314
0.00807577
0.00794955
0.00782687
0.0077102
0.00760207
0.00750503
0.00742157
0.00735403
0.00730427
0.00727381
0.00726622
0.00728346
9.33727e-05
8.54702e-05
5.75869e-05
1.23649e-05
-4.64866e-05
-0.000116132
-0.000193762
-0.000276598
-0.000362053
-0.000447782
-0.00053171
-0.000612022
-0.00068713
-0.000755662
-0.000816458
-0.000868556
-0.000911164
-0.000943614
-0.000965358
-0.000975963
-0.000975104
-0.000962544
-0.0009381
-0.000901624
-0.000853026
-0.00079228
-0.000719404
-0.000634433
-0.000537423
-0.000428454
-0.000307627
-0.000175072
-3.09547e-05
0.00012453
0.000291166
0.000468719
0.000656928
0.000855486
0.00106404
0.00128218
0.00150948
0.00174547
0.00198965
0.00224147
0.00250031
0.0027655
0.00303631
0.00331197
0.00359163
0.00387443
0.00415944
0.00444571
0.00473222
0.00501792
0.00530172
0.00558248
0.00585906
0.0061303
0.00639504
0.00665213
0.00690042
0.00713879
0.00736617
0.00758151
0.0077838
0.00797212
0.00814561
0.0083035
0.00844512
0.0085699
0.00867742
0.00876734
0.0088395
0.00889386
0.00893052
0.00894972
0.00895186
0.0089375
0.00890731
0.00886217
0.00880305
0.00873111
0.00864764
0.00855407
0.00845196
0.00834301
0.00822903
0.00811194
0.00799379
0.00787668
0.00776281
0.00765443
0.00755382
0.00746323
0.00738491
0.00732095
0.00727308
0.00724288
0.00723452
0.00725104
0.000178806
0.000157719
0.000122199
7.35584e-05
1.39592e-05
-5.4182e-05
-0.000128505
-0.000206734
-0.000286698
-0.000366388
-0.000444009
-0.000517964
-0.000586829
-0.000649363
-0.00070452
-0.000751421
-0.000789315
-0.000817563
-0.000835645
-0.000843155
-0.000839777
-0.000825266
-0.000799427
-0.000762109
-0.000713219
-0.000652729
-0.000580643
-0.000496977
-0.00040177
-0.000295091
-0.000177035
-4.77221e-05
9.26938e-05
0.000244031
0.000406087
0.000578639
0.00076144
0.000954192
0.00115655
0.00136813
0.0015885
0.00181723
0.00205383
0.00229777
0.00254846
0.00280525
0.00306742
0.00333422
0.00360486
0.00387849
0.00415423
0.00443116
0.0047083
0.00498462
0.00525909
0.00553061
0.00579807
0.00606037
0.0063164
0.00656503
0.00680519
0.00703579
0.0072558
0.00746421
0.00766007
0.00784249
0.00801064
0.0081638
0.00830133
0.0084227
0.00852749
0.00861542
0.00868631
0.00874015
0.00877704
0.00879724
0.00880112
0.00878924
0.00876226
0.008721
0.00866644
0.00859968
0.00852194
0.0084346
0.00833914
0.00823718
0.00813043
0.00802068
0.00790984
0.00779986
0.00769276
0.00759059
0.0074954
0.00740925
0.00733411
0.00727191
0.00722426
0.00719273
0.00718127
0.0071928
0.000282508
0.000245307
0.000199777
0.000145565
8.29908e-05
1.40811e-05
-5.91562e-05
-0.000134874
-0.000211288
-0.000286721
-0.000359642
-0.000428652
-0.000492509
-0.000550131
-0.000600589
-0.000643084
-0.000676923
-0.000701516
-0.000716397
-0.000721191
-0.000715595
-0.000699365
-0.000672305
-0.00063427
-0.000585176
-0.000524992
-0.000453709
-0.000371328
-0.000277874
-0.000173409
-5.80225e-05
6.81727e-05
0.000205039
0.00035241
0.0005101
0.000677898
0.000855566
0.00104282
0.00123932
0.00144471
0.00165858
0.00188052
0.00211005
0.00234667
0.0025898
0.00283882
0.00309302
0.0033517
0.00361409
0.00387937
0.0041467
0.00441518
0.00468387
0.00495177
0.00521788
0.00548115
0.0057405
0.00599487
0.00624317
0.00648435
0.00671734
0.00694112
0.00715466
0.00735701
0.00754724
0.0077245
0.00788799
0.00803701
0.00817095
0.0082893
0.00839166
0.00847777
0.00854747
0.00860073
0.00863769
0.00865857
0.00866376
0.00865379
0.00862931
0.00859113
0.00854016
0.00847749
0.00840428
0.00832185
0.00823162
0.00813511
0.00803394
0.0079298
0.00782447
0.00771975
0.00761751
0.00751962
0.00742795
0.00734433
0.00727057
0.00720838
0.00715927
0.00712476
0.00710797
0.00711113
0.000399461
0.000344405
0.000287154
0.000225641
0.000158257
8.6675e-05
1.26164e-05
-6.2437e-05
-0.000137057
-0.000209862
-0.000279558
-0.000344958
-0.000405006
-0.000458777
-0.000505462
-0.000544345
-0.000574805
-0.000596326
-0.000608498
-0.000610984
-0.000603497
-0.000585804
-0.000557724
-0.000519129
-0.000469942
-0.000410131
-0.000339675
-0.000258564
-0.000166816
-6.44885e-05
4.83334e-05
0.000171547
0.000305031
0.000448638
0.000602196
0.000765508
0.000938344
0.00112043
0.00131146
0.00151107
0.0017189
0.00193454
0.00215756
0.00238744
0.00262365
0.00286557
0.00311255
0.00336387
0.00361882
0.0038766
0.00413641
0.00439737
0.00465856
0.00491903
0.00517779
0.00543382
0.00568608
0.00593354
0.00617516
0.0064099
0.00663673
0.00685464
0.00706265
0.00725981
0.00744524
0.00761809
0.0077776
0.00792308
0.00805394
0.00816969
0.00826994
0.00835443
0.00842302
0.00847569
0.00851254
0.00853383
0.00853991
0.00853132
0.00850867
0.00847275
0.00842446
0.00836482
0.00829497
0.00821616
0.00812976
0.00803721
0.00794005
0.00783986
0.0077383
0.00763707
0.00753788
0.00744244
0.00735247
0.00726962
0.00719552
0.0071317
0.00707957
0.00704051
0.0070166
0.00700902
0.000525136
0.000451309
0.0003812
0.000311085
0.000237459
0.000161702
8.52887e-05
9.36622e-06
-6.49386e-05
-0.000136501
-0.000204257
-0.00026723
-0.000324549
-0.000375436
-0.000419191
-0.000455198
-0.000482927
-0.000501942
-0.00051189
-0.000512469
-0.000503417
-0.000484526
-0.000455642
-0.000416657
-0.000367503
-0.000308144
-0.000238552
-0.000158712
-6.864e-05
3.16092e-05
0.000141956
0.000262312
0.000392573
0.000532605
0.000682254
0.000841333
0.00100962
0.00118687
0.00137278
0.00156702
0.00176925
0.00197908
0.0021961
0.00241982
0.00264971
0.00288519
0.00312562
0.00337033
0.00361861
0.00386971
0.00412285
0.00437716
0.00463177
0.00488574
0.0051381
0.00538786
0.00563402
0.00587556
0.00611147
0.00634073
0.00656234
0.0067753
0.00697866
0.00717148
0.00735289
0.00752206
0.00767825
0.00782077
0.00794906
0.00806261
0.00816107
0.00824416
0.00831174
0.0083638
0.00840043
0.00842187
0.00842849
0.00842078
0.00839935
0.00836497
0.00831851
0.00826094
0.00819338
0.00811703
0.00803318
0.00794323
0.00784862
0.00775087
0.00765152
0.00755216
0.00745438
0.00735976
0.00726986
0.00718621
0.00711024
0.00704333
0.00698679
0.00694187
0.00690943
0.00688953
0.000655545
0.000562615
0.000478975
0.000399333
0.000318387
0.000237284
0.000157284
7.92454e-05
4.0394e-06
-6.7446e-05
-0.00013437
-0.000195957
-0.000251505
-0.000300367
-0.000341957
-0.000375773
-0.000401382
-0.000418428
-0.000426613
-0.000425672
-0.000415379
-0.000395562
-0.0003661
-0.000326907
-0.000277921
-0.000219103
-0.000150424
-7.18693e-05
1.65415e-05
0.000114755
0.000222704
0.000340312
0.000467494
0.000604132
0.00075008
0.000905164
0.00106918
0.00124189
0.00142303
0.00161228
0.00180933
0.00201382
0.00222534
0.00244344
0.0026676
0.00289725
0.0031318
0.00337059
0.00361295
0.00385815
0.00410542
0.00435394
0.00460283
0.00485119
0.00509806
0.00534248
0.00558346
0.00582002
0.00605115
0.00627586
0.00649315
0.00670205
0.0069016
0.00709089
0.00726904
0.00743523
0.00758874
0.00772888
0.00785508
0.00796685
0.00806383
0.00814574
0.00821244
0.0082639
0.00830022
0.00832162
0.00832845
0.0083212
0.00830046
0.00826696
0.00822155
0.00816519
0.00809895
0.00802398
0.00794153
0.00785294
0.00775957
0.00766287
0.00756431
0.00746537
0.00736753
0.00727226
0.007181
0.00709512
0.00701594
0.00694467
0.00688253
0.00683066
0.00678868
0.0067555
0.00078726
0.000675263
0.000577755
0.000487975
0.000398926
0.000311569
0.000227008
0.000145857
6.87529e-05
-3.63983e-06
-7.06881e-05
-0.000131795
-0.000186405
-0.000234001
-0.000274125
-0.000306385
-0.000330449
-0.00034603
-0.000352885
-0.000350796
-0.000339582
-0.000319115
-0.00028931
-0.000250094
-0.000201414
-0.000143234
-7.55297e-05
1.70931e-06
8.84595e-05
0.000184671
0.000290287
0.00040525
0.000529487
0.000662896
0.000805338
0.000956653
0.00111665
0.00128513
0.00146182
0.00164646
0.00183874
0.00203832
0.00224483
0.00245782
0.00267681
0.00290124
0.00313054
0.00336409
0.00360125
0.00384129
0.00408348
0.00432701
0.00457102
0.00481461
0.00505687
0.00529684
0.00553355
0.00576602
0.00599328
0.00621433
0.00642818
0.00663386
0.00683043
0.00701697
0.0071926
0.00735651
0.00750796
0.00764628
0.0077709
0.00788131
0.00797714
0.00805811
0.00812408
0.008175
0.00821095
0.00823215
0.00823893
0.00823176
0.00821122
0.00817803
0.00813299
0.00807705
0.00801124
0.00793668
0.00785457
0.00776619
0.00767288
0.00757598
0.00747691
0.00737706
0.00727783
0.00718059
0.00708667
0.00699732
0.00691375
0.00683702
0.00676828
0.00670859
0.00665636
0.00660938
0.000917362
0.000786536
0.000675054
0.000574765
0.000477055
0.000382771
0.000292906
0.000207852
0.000128029
5.38983e-05
-1.40871e-05
-7.54839e-05
-0.000129875
-0.000176881
-0.00021617
-0.000247459
-0.000270505
-0.000285086
-0.000291017
-0.000288137
-0.000276319
-0.00025548
-0.000225561
-0.000186508
-0.000138277
-8.08389e-05
-1.41806e-05
6.16992e-05
0.000146776
0.000241008
0.00034435
0.00045676
0.000578176
0.000708504
0.000847622
0.000995379
0.00115161
0.00131612
0.00148869
0.00166907
0.00185698
0.00205209
0.00225405
0.00246243
0.00267678
0.00289656
0.00312123
0.0033502
0.00358283
0.00381844
0.0040563
0.00429561
0.00453553
0.0047752
0.00501368
0.00525005
0.00548336
0.00571263
0.00593688
0.00615513
0.0063664
0.0065697
0.00676409
0.00694864
0.00712249
0.0072848
0.00743484
0.00757191
0.00769544
0.00780492
0.00789995
0.00798026
0.00804567
0.00809613
0.0081317
0.00815258
0.00815911
0.00815171
0.00813096
0.00809755
0.00805227
0.00799605
0.00792986
0.00785482
0.00777209
0.00768291
0.00758854
0.00749031
0.00738955
0.0072876
0.00718578
0.00708537
0.00698761
0.00689369
0.00680468
0.00672153
0.00664537
0.00657719
0.00651423
0.00645323
0.00104332
0.000894025
0.000768602
0.000657597
0.000550867
0.000449183
0.000353455
0.000263873
0.00018066
0.000104105
3.4511e-05
-2.7824e-05
-8.2622e-05
-0.000129638
-0.000168661
-0.000199506
-0.000222006
-0.000236011
-0.0002414
-0.000238073
-0.00022596
-0.000205018
-0.000175212
-0.000136505
-8.88653e-05
-3.22816e-05
3.32473e-05
0.000107715
0.000191098
0.000283365
0.000384482
0.000494417
0.000613121
0.000740507
0.000876465
0.00102086
0.00117355
0.00133438
0.00150313
0.00167959
0.00186349
0.00205454
0.00225239
0.00245664
0.00266686
0.00288255
0.00310318
0.00332819
0.00355695
0.00378882
0.00402307
0.00425891
0.00449553
0.00473206
0.00496759
0.0052012
0.00543194
0.00565885
0.00588095
0.00609725
0.00630676
0.0065085
0.00670151
0.00688484
0.00705763
0.00721903
0.00736828
0.00750469
0.00762764
0.00773664
0.00783126
0.00791119
0.00797625
0.00802637
0.0080616
0.00808211
0.00808821
0.00808033
0.00805902
0.00802494
0.00797889
0.00792174
0.00785447
0.00777815
0.00769392
0.00760299
0.00750658
0.00740597
0.00730245
0.0071973
0.00709179
0.00698713
0.00688451
0.00678502
0.00668964
0.00659927
0.00651501
0.0064378
0.00636379
0.00628873
0.00116292
0.000995567
0.000856338
0.00073454
0.000618586
0.00050918
0.000407166
0.000312563
0.000225425
0.000145899
7.4148e-05
1.03268e-05
-4.54226e-05
-9.29802e-05
-0.000132239
-0.000163104
-0.000185484
-0.000199301
-0.000204506
-0.000201064
-0.000188952
-0.000168162
-0.000138685
-0.000100503
-5.36043e-05
2.00495e-06
6.63127e-05
0.000139308
0.000220971
0.000311278
0.000410207
0.000517735
0.00063382
0.000758386
0.000891335
0.00103256
0.00118193
0.00133931
0.00150454
0.0016774
0.00185765
0.00204501
0.00223918
0.00243976
0.00264635
0.00285847
0.00307562
0.00329727
0.00352281
0.0037516
0.00398292
0.00421602
0.00445008
0.00468424
0.00491761
0.00514927
0.00537827
0.00560365
0.00582443
0.00603961
0.00624819
0.00644917
0.00664158
0.00682446
0.00699692
0.0071581
0.00730721
0.00744354
0.00756647
0.00767546
0.00777006
0.00784995
0.00791492
0.00796486
0.00799982
0.00801995
0.00802552
0.00801696
0.0079948
0.00795968
0.00791237
0.00785373
0.00778474
0.00770642
0.0076199
0.00752636
0.007427
0.00732306
0.00721581
0.00710647
0.00699627
0.00688639
0.00677795
0.00667199
0.00656945
0.00647115
0.00637818
0.00629153
0.00620626
0.00611722
0.00127414
0.00108921
0.000936391
0.000803824
0.000678542
0.000561197
0.000452587
0.000352589
0.000261118
0.00017819
0.000103829
3.80548e-05
-1.91164e-05
-6.76737e-05
-0.000107604
-0.000138895
-0.000161536
-0.000175525
-0.000180884
-0.000177637
-0.000165804
-0.000145408
-0.000116468
-7.89896e-05
-3.2983e-05
2.15262e-05
8.45146e-05
0.00015597
0.000235879
0.000324225
0.000420993
0.000526165
0.00063971
0.000761561
0.000891637
0.00102985
0.0011761
0.00133029
0.00149225
0.00166181
0.00183874
0.00202279
0.00221366
0.00241101
0.00261443
0.00282349
0.00303772
0.00325658
0.0034795
0.00370584
0.00393492
0.00416597
0.0043982
0.00463074
0.00486271
0.0050932
0.00532127
0.00554593
0.00576621
0.00598109
0.00618956
0.00639059
0.00658318
0.00676638
0.00693924
0.0071009
0.00725054
0.00738742
0.00751088
0.00762036
0.00771538
0.0077956
0.00786076
0.00791074
0.00794556
0.00796534
0.00797035
0.00796098
0.00793773
0.00790125
0.00785228
0.00779167
0.00772037
0.00763941
0.00754989
0.00745297
0.00734983
0.0072417
0.00712981
0.00701537
0.00689957
0.00678357
0.00666845
0.00655522
0.00644479
0.00633792
0.00623576
0.00613929
0.00604263
0.00593972
0.00137523
0.0011732
0.00100705
0.000863796
0.000729149
0.000603731
0.000488315
0.000382659
0.000286551
0.000199875
0.000122528
5.44055e-05
-4.58598e-06
-5.45309e-05
-9.55051e-05
-0.000127579
-0.000150825
-0.00016532
-0.000171147
-0.000168382
-0.000157086
-0.000137313
-0.000109111
-7.25114e-05
-2.75523e-05
2.5726e-05
8.72941e-05
0.00015714
0.000235253
0.000321624
0.000416242
0.000519097
0.000630162
0.000749387
0.00087671
0.00101207
0.00115539
0.00130659
0.00146554
0.00163207
0.00180599
0.00198707
0.00217502
0.00236954
0.00257024
0.00277673
0.00298853
0.00320515
0.00342603
0.00365055
0.00387802
0.0041077
0.00433879
0.00457044
0.00480177
0.00503187
0.00525978
0.00548454
0.00570513
0.00592052
0.00612968
0.00633156
0.00652514
0.00670942
0.00688344
0.0070463
0.00719716
0.00733522
0.00745981
0.00757032
0.00766625
0.0077472
0.00781289
0.00786318
0.00789804
0.00791758
0.00792203
0.00791176
0.00788727
0.00784917
0.00779821
0.00773521
0.00766111
0.00757693
0.00748376
0.00738275
0.00727508
0.00716196
0.00704461
0.00692423
0.006802
0.00667905
0.00655646
0.00643523
0.00631623
0.00620022
0.00608841
0.00598183
0.00587366
0.005757
0.00146457
0.00124591
0.00106671
0.000912893
0.000768903
0.000635353
0.000513009
0.000401518
0.000300542
0.000209842
0.000129198
5.84019e-05
-2.73803e-06
-5.43951e-05
-9.67331e-05
-0.000129909
-0.000154076
-0.000169379
-0.000175962
-0.000173944
-0.000163423
-0.000144489
-0.00011722
-8.16786e-05
-3.79232e-05
1.39935e-05
7.40363e-05
0.000142194
0.000218463
0.000302833
0.000395299
0.000495855
0.000604485
0.000721158
0.000845832
0.000978469
0.00111902
0.00126743
0.00142359
0.00158735
0.00175855
0.00193696
0.00212234
0.00231441
0.00251282
0.00271718
0.00292705
0.00314196
0.00336136
0.00358463
0.00381111
0.00404006
0.00427069
0.00450216
0.00473358
0.00496405
0.00519259
0.00541822
0.00563992
0.00585664
0.0060673
0.00627084
0.00646621
0.00665237
0.00682833
0.00699314
0.00714592
0.00728585
0.0074122
0.00752432
0.00762167
0.00770381
0.00777043
0.00782134
0.00785648
0.00787593
0.0078799
0.00786873
0.00784289
0.007803
0.00774977
0.00768402
0.00760669
0.00751879
0.0074214
0.00731566
0.00720277
0.00708393
0.00696036
0.00683326
0.00670381
0.00657315
0.00644235
0.00631243
0.00618424
0.00605857
0.00593668
0.00581969
0.00569989
0.00556957
0.00154068
0.00130586
0.00111388
0.000949647
0.000796387
0.000654713
0.000525383
0.000407934
0.000301912
0.000206969
0.000122784
4.90551e-05
-1.44987e-05
-6.81412e-05
-0.000112124
-0.000146688
-0.00017206
-0.000188449
-0.000196046
-0.000195014
-0.000185492
-0.000167604
-0.000141462
-0.000107155
-6.47602e-05
-1.43396e-05
4.40708e-05
0.00011046
0.000184822
0.000267151
0.000357445
0.000455704
0.000561928
0.000676103
0.000798212
0.000928242
0.00106617
0.00121196
0.00136552
0.00152674
0.00169546
0.0018715
0.00205464
0.00224461
0.00244111
0.00264377
0.00285218
0.00306586
0.0032843
0.00350689
0.00373297
0.00396182
0.00419265
0.00442462
0.00465685
0.00488842
0.00511836
0.00534566
0.00556927
0.00578812
0.00600111
0.00620714
0.00640511
0.00659396
0.00677264
0.00694018
0.00709563
0.00723814
0.00736692
0.00748128
0.00758063
0.00766447
0.00773247
0.00778438
0.0078201
0.00783969
0.00784331
0.00783129
0.00780409
0.00776228
0.00770658
0.0076378
0.00755687
0.0074648
0.00736267
0.00725164
0.0071329
0.00700767
0.00687717
0.00674262
0.00660523
0.00646613
0.00632643
0.00618716
0.00604921
0.00591335
0.00578096
0.00565327
0.00552168
0.00537773
0.00160219
0.00135162
0.00114716
0.000972685
0.000810269
0.000660519
0.000524182
0.000400692
0.000289493
0.000190144
0.000102234
2.53724e-05
-4.08128e-05
-9.6675e-05
-0.000142552
-0.000178762
-0.000205593
-0.000223311
-0.000232155
-0.000232333
-0.000224019
-0.000207378
-0.000182553
-0.000149657
-0.000108779
-5.99873e-05
-3.32199e-06
6.12043e-05
0.000133586
0.000213818
0.000301902
0.00039785
0.000501676
0.000613388
0.000732997
0.000860511
0.000995932
0.00113924
0.00129038
0.00144924
0.00161571
0.00178963
0.00197082
0.00215902
0.00235398
0.00255533
0.0027627
0.00297562
0.00319359
0.00341603
0.00364228
0.00387162
0.00410329
0.00433643
0.00457018
0.00480358
0.00503567
0.00526541
0.00549173
0.00571353
0.00592968
0.00613903
0.00634044
0.00653281
0.00671505
0.00688612
0.00704504
0.00719089
0.00732282
0.0074401
0.00754207
0.00762821
0.00769809
0.00775144
0.00778812
0.00780813
0.00781162
0.00779888
0.00777035
0.00772658
0.00766827
0.00759624
0.00751141
0.00741479
0.00730747
0.00719063
0.00706546
0.00693322
0.00679513
0.00665247
0.00650643
0.00635822
0.00620896
0.00605971
0.00591139
0.00576485
0.00562154
0.00548282
0.00533926
0.00518163
0.00164779
0.0013819
0.00116524
0.000980723
0.00080928
0.000651519
0.000508179
0.000378604
0.000262146
0.000158283
6.65143e-05
-1.3639e-05
-8.26404e-05
-0.00014093
-0.000188921
-0.000226999
-0.000255514
-0.00027478
-0.000285083
-0.000286676
-0.000279775
-0.000264579
-0.00024126
-0.000209947
-0.000170741
-0.000123715
-6.89154e-05
-6.35581e-06
6.39556e-05
0.000142016
0.000227833
0.000321433
0.000422851
0.000532117
0.000649264
0.000774324
0.000907324
0.00104826
0.00119711
0.00135378
0.0015182
0.00169023
0.00186971
0.00205644
0.00225017
0.00245058
0.0026573
0.00286989
0.00308786
0.00331064
0.00353759
0.00376801
0.00400112
0.00423609
0.00447203
0.00470799
0.00494298
0.00517594
0.00540578
0.00563135
0.00585149
0.00606501
0.00627073
0.00646748
0.00665414
0.00682959
0.00699281
0.0071428
0.00727868
0.00739962
0.00750491
0.00759397
0.00766631
0.00772162
0.0077597
0.00778051
0.00778415
0.0077709
0.00774114
0.00769544
0.00763447
0.00755903
0.00747006
0.00736857
0.00725568
0.00713256
0.00700045
0.00686062
0.00671434
0.00656291
0.00640758
0.00624958
0.0060901
0.00593026
0.00577101
0.00561325
0.00545858
0.00530847
0.00515269
0.00498124
0.00167628
0.00139545
0.00116689
0.000972523
0.000792188
0.000626493
0.000476182
0.000340516
0.000218764
0.000110319
1.45924e-05
-6.89866e-05
-0.000140964
-0.000201858
-0.000252153
-0.000292295
-0.000322688
-0.000343697
-0.000355657
-0.000358863
-0.000353574
-0.000340018
-0.000318388
-0.000288829
-0.000251452
-0.000206336
-0.000153532
-9.30586e-05
-2.49262e-05
5.0867e-05
0.000134341
0.000225539
0.000324515
0.000431323
0.00054602
0.00066866
0.000799291
0.000937936
0.00108459
0.0012392
0.00140172
0.00157204
0.00175005
0.00193556
0.00212835
0.00232814
0.00253456
0.0027472
0.0029656
0.00318919
0.00341736
0.0036494
0.00388455
0.00412197
0.00436077
0.00459999
0.00483861
0.00507556
0.00530972
0.0055399
0.00576488
0.00598345
0.00619437
0.00639641
0.00658838
0.00676911
0.00693751
0.00709252
0.00723317
0.00735858
0.00746796
0.00756066
0.00763613
0.00769399
0.00773399
0.00775605
0.00776021
0.00774672
0.00771594
0.00766841
0.00760478
0.00752586
0.00743259
0.00732598
0.00720718
0.00707738
0.00693785
0.00678989
0.00663484
0.00647403
0.00630877
0.00614036
0.00597002
0.00579895
0.00562819
0.00545867
0.00529216
0.00513026
0.00496194
0.00477642
0.00168652
0.00139111
0.0011509
0.000946879
0.000757794
0.000584265
0.000427044
0.000285317
0.000158265
4.51933e-05
-5.45715e-05
-0.000141686
-0.000216775
-0.000280425
-0.000333184
-0.000375557
-0.000408002
-0.000430935
-0.00044474
-0.000449753
-0.00044627
-0.000434543
-0.000414783
-0.000387149
-0.000351761
-0.000308708
-0.000258045
-0.000199797
-0.000133972
-6.05597e-05
2.04747e-05
0.000109192
0.000205668
0.000309979
0.000422205
0.000542423
0.000670701
0.000807091
0.000951611
0.00110425
0.00126499
0.00143375
0.00161046
0.00179496
0.00198706
0.00218649
0.00239293
0.00260599
0.0028252
0.00305003
0.00327988
0.00351406
0.0037518
0.00399228
0.00423459
0.00447776
0.00472076
0.00496247
0.00520175
0.00543737
0.00566808
0.00589259
0.00610962
0.00631788
0.00651611
0.00670308
0.0068776
0.00703856
0.00718489
0.00731565
0.00742997
0.0075271
0.00760645
0.00766755
0.00771009
0.00773393
0.00773907
0.00772571
0.00769419
0.00764501
0.00757881
0.00749641
0.00739873
0.00728682
0.00716183
0.007025
0.00687762
0.00672106
0.0065567
0.00638592
0.00621012
0.00603064
0.00584881
0.00566589
0.00548299
0.00530116
0.00512228
0.00494813
0.00476685
0.00456691
0.00167738
0.00136774
0.00111614
0.000902638
0.000704956
0.000523713
0.000359668
0.000211928
7.95846e-05
-3.81433e-05
-0.000142012
-0.000232753
-0.000311061
-0.000377591
-0.00043295
-0.000477702
-0.000512359
-0.00053739
-0.000553222
-0.000560233
-0.000558744
-0.000549031
-0.000531321
-0.000505787
-0.00047256
-0.000431736
-0.00038338
-0.000327516
-0.000264147
-0.000193251
-0.000114777
-2.86449e-05
6.52434e-05
0.000166986
0.000276684
0.000394437
0.000520339
0.000654468
0.000796876
0.00094759
0.00110661
0.00127392
0.00144946
0.00163312
0.00182472
0.00202403
0.00223076
0.00244452
0.00266489
0.00289136
0.00312333
0.00336013
0.003601
0.00384511
0.00409156
0.00433935
0.00458744
0.00483469
0.0050799
0.00532181
0.00555913
0.00579051
0.0060146
0.00623005
0.00643554
0.00662974
0.0068114
0.0069793
0.00713231
0.00726938
0.00738956
0.00749203
0.00757609
0.00764121
0.007687
0.00771326
0.00771994
0.00770718
0.00767529
0.00762473
0.00755616
0.00747035
0.00736824
0.00725091
0.00711952
0.00697535
0.00681975
0.00665413
0.00647994
0.00629863
0.00611168
0.00592051
0.00572654
0.00553112
0.00533546
0.00514069
0.00494887
0.00476194
0.00456722
0.00435238
0.00164779
0.00132423
0.00106148
0.000838699
0.000632585
0.000443761
0.00027299
0.000119289
-1.83332e-05
-0.000140737
-0.000248754
-0.000343188
-0.000424801
-0.000494313
-0.000552392
-0.000599659
-0.000636683
-0.00066398
-0.00068202
-0.000691211
-0.000691902
-0.000684387
-0.000668912
-0.000645662
-0.00061478
-0.000576372
-0.000530506
-0.000477205
-0.000416464
-0.000348244
-0.000272478
-0.000189065
-9.7887e-05
1.17654e-06
0.000108247
0.00022345
0.000346907
0.000478726
0.000618995
0.000767777
0.000925113
0.00109102
0.00126547
0.00144839
0.00163963
0.001839
0.00204622
0.00226095
0.00248279
0.00271123
0.00294572
0.00318558
0.00343007
0.00367837
0.00392956
0.00418263
0.00443651
0.00469005
0.004942
0.00519107
0.00543591
0.0056751
0.00590724
0.00613092
0.0063447
0.0065472
0.00673707
0.006913
0.00707375
0.00721819
0.00734527
0.00745405
0.00754377
0.0076138
0.00766366
0.00769309
0.00770197
0.00769039
0.00765859
0.00760704
0.00753635
0.0074473
0.00734083
0.00721803
0.00708009
0.00692835
0.0067642
0.00658911
0.0064046
0.00621222
0.00601352
0.00581004
0.00560327
0.00539468
0.00518558
0.00497721
0.00477182
0.00457151
0.00436276
0.0041324
0.00159669
0.00125953
0.000985863
0.000754005
0.000539628
0.000343357
0.000165949
6.34433e-06
-0.000136534
-0.000263617
-0.000375809
-0.000473982
-0.000558968
-0.00063155
-0.000692459
-0.000742374
-0.000781916
-0.000811645
-0.000832066
-0.000843617
-0.000846671
-0.000841543
-0.000828493
-0.000807725
-0.000779391
-0.000743606
-0.000700437
-0.000649902
-0.000591983
-0.000526626
-0.000453744
-0.000373219
-0.000284912
-0.000188681
-8.43805e-05
2.81399e-05
0.000149034
0.000278443
0.000416493
0.000563287
0.000718904
0.000883398
0.00105678
0.00123901
0.00142998
0.00162953
0.0018374
0.0020533
0.00227683
0.00250755
0.00274489
0.00298822
0.00323679
0.00348979
0.00374628
0.00400526
0.00426564
0.00452622
0.00478573
0.00504282
0.00529609
0.00554408
0.0057853
0.00601825
0.00624144
0.00645337
0.0066526
0.00683771
0.00700738
0.00716034
0.00729544
0.00741165
0.00750808
0.00758402
0.0076389
0.00767237
0.00768423
0.0076745
0.00764341
0.00759135
0.00751891
0.00742688
0.00731619
0.00718795
0.0070434
0.0068839
0.00671091
0.00652598
0.00633071
0.00612673
0.0059157
0.00569925
0.00547902
0.00525656
0.00503332
0.00481063
0.00459096
0.00437661
0.00415314
0.00390654
0.00152307
0.0011726
0.000888278
0.000647529
0.000425049
0.000221457
3.75051e-05
-0.000127943
-0.000276039
-0.000407788
-0.000524163
-0.00062611
-0.000714526
-0.000790262
-0.00085411
-0.000906804
-0.000949011
-0.000981332
-0.0010043
-0.00101839
-0.001024
-0.00102145
-0.00101104
-0.000992964
-0.000967403
-0.000934469
-0.000894225
-0.00084668
-0.000791805
-0.000729527
-0.000659742
-0.000582312
-0.00049708
-0.000403883
-0.000302547
-0.000192892
-7.47312e-05
5.21144e-05
0.00018781
0.000332499
0.000486304
0.000649317
0.000821588
0.00100311
0.00119383
0.0013936
0.00160221
0.00181941
0.00204483
0.00227805
0.00251855
0.00276568
0.00301875
0.00327691
0.00353925
0.00380474
0.00407228
0.00434063
0.0046085
0.0048745
0.00513714
0.00539493
0.00564628
0.00588964
0.00612339
0.00634595
0.00655577
0.00675132
0.00693116
0.0070939
0.00723827
0.00736313
0.00746747
0.00755045
0.00761143
0.00764993
0.00766568
0.00765864
0.00762896
0.00757699
0.00750331
0.00740866
0.007294
0.00716045
0.00700928
0.00684191
0.00665986
0.00646476
0.0062583
0.00604221
0.00581827
0.00558822
0.00535382
0.00511677
0.00487862
0.00464085
0.00440614
0.00417699
0.00393801
0.00367428
0.00142594
0.00106247
0.000767715
0.00051826
0.00028783
7.70408e-05
-0.000113358
-0.000284575
-0.000437838
-0.000574226
-0.000694786
-0.000800534
-0.000892438
-0.000971413
-0.00103831
-0.00109391
-0.00113892
-0.00117399
-0.00119969
-0.0012165
-0.00122485
-0.0012251
-0.00121754
-0.0012024
-0.00117986
-0.00115002
-0.00111296
-0.00106865
-0.00101707
-0.000958126
-0.000891689
-0.000817608
-0.000735705
-0.000645792
-0.000547666
-0.000441115
-0.000325916
-0.000201849
-6.8706e-05