/*--------------------------------*- C++ -*----------------------------------*\
| =========                 |                                                 |
| \\      /  F ield         | OpenFOAM: The Open Source CFD Toolbox           |
|  \\    /   O peration     | Version:  2512                                  |
|   \\  /    A nd           | Website:  www.openfoam.com                      |
|    \\/     M anipulation  |                                                 |
\*---------------------------------------------------------------------------*/
FoamFile
{
    version     2.0;
    format      ascii;
    arch        "LSB;label=32;scalar=64";
    class       volVectorField;
    location    "0.34";
    object      U;
}
// * * * * * * * * * * * * * * * * * * * * * * * * * * * * * * * * * * * * * //

dimensions      [0 1 -1 0 0 0 0];

internalField   nonuniform List<vector> 
10000
(
(3.31009e-06 -3.11711e-06 0)
(1.35724e-05 -6.45648e-06 0)
(2.75271e-05 -6.56937e-06 0)
(3.80348e-05 -4.72181e-06 0)
(4.14582e-05 -2.00264e-06 0)
(3.62013e-05 1.043e-06 0)
(2.17188e-05 4.12688e-06 0)
(-2.02055e-06 7.10332e-06 0)
(-3.47134e-05 9.89707e-06 0)
(-7.5862e-05 1.24716e-05 0)
(-0.000124872 1.48153e-05 0)
(-0.000181102 1.69269e-05 0)
(-0.000243889 1.88118e-05 0)
(-0.000312573 2.04815e-05 0)
(-0.000386507 2.19482e-05 0)
(-0.000465073 2.32238e-05 0)
(-0.000547676 2.43203e-05 0)
(-0.000633753 2.52488e-05 0)
(-0.000722771 2.60222e-05 0)
(-0.000814232 2.6652e-05 0)
(-0.000907665 2.71473e-05 0)
(-0.00100263 2.75178e-05 0)
(-0.00109871 2.77723e-05 0)
(-0.00119551 2.79188e-05 0)
(-0.00129266 2.79636e-05 0)
(-0.00138982 2.79124e-05 0)
(-0.00148664 2.77696e-05 0)
(-0.00158281 2.75384e-05 0)
(-0.00167802 2.72221e-05 0)
(-0.00177197 2.68239e-05 0)
(-0.00186437 2.63461e-05 0)
(-0.00195493 2.57896e-05 0)
(-0.00204337 2.51543e-05 0)
(-0.00212941 2.44403e-05 0)
(-0.00221277 2.36479e-05 0)
(-0.00229318 2.27773e-05 0)
(-0.00237036 2.18282e-05 0)
(-0.00244403 2.07997e-05 0)
(-0.00251392 1.96915e-05 0)
(-0.00257975 1.85034e-05 0)
(-0.00264125 1.72356e-05 0)
(-0.00269815 1.58887e-05 0)
(-0.00275018 1.44632e-05 0)
(-0.00279707 1.29604e-05 0)
(-0.00283858 1.13818e-05 0)
(-0.00287445 9.72994e-06 0)
(-0.00290445 8.00808e-06 0)
(-0.00292835 6.22029e-06 0)
(-0.00294595 4.37107e-06 0)
(-0.00295705 2.46594e-06 0)
(-0.0029615 5.11026e-07 0)
(-0.00295914 -1.48662e-06 0)
(-0.00294985 -3.51878e-06 0)
(-0.00293354 -5.5766e-06 0)
(-0.00291017 -7.65042e-06 0)
(-0.00287969 -9.72948e-06 0)
(-0.00284213 -1.18026e-05 0)
(-0.00279753 -1.3858e-05 0)
(-0.002746 -1.58833e-05 0)
(-0.00268766 -1.78653e-05 0)
(-0.00262268 -1.97906e-05 0)
(-0.00255131 -2.16455e-05 0)
(-0.00247379 -2.34159e-05 0)
(-0.00239045 -2.50881e-05 0)
(-0.00230165 -2.66485e-05 0)
(-0.00220779 -2.80836e-05 0)
(-0.00210932 -2.93804e-05 0)
(-0.00200672 -3.05267e-05 0)
(-0.00190052 -3.15106e-05 0)
(-0.00179128 -3.23212e-05 0)
(-0.00167961 -3.29489e-05 0)
(-0.00156612 -3.3385e-05 0)
(-0.00145148 -3.36222e-05 0)
(-0.00133634 -3.36547e-05 0)
(-0.00122141 -3.34785e-05 0)
(-0.00110737 -3.30908e-05 0)
(-0.000994938 -3.24905e-05 0)
(-0.00088481 -3.16779e-05 0)
(-0.000777686 -3.06555e-05 0)
(-0.000674256 -2.9427e-05 0)
(-0.000575187 -2.79978e-05 0)
(-0.000481127 -2.63755e-05 0)
(-0.000392694 -2.4569e-05 0)
(-0.000310471 -2.25887e-05 0)
(-0.000234999 -2.04469e-05 0)
(-0.000166771 -1.81574e-05 0)
(-0.000106225 -1.57364e-05 0)
(-5.37369e-05 -1.3202e-05 0)
(-9.60834e-06 -1.05752e-05 0)
(2.59438e-05 -7.881e-06 0)
(5.28041e-05 -5.14984e-06 0)
(7.09819e-05 -2.42143e-06 0)
(8.06441e-05 2.50816e-07 0)
(8.21659e-05 2.78952e-06 0)
(7.6211e-05 5.07572e-06 0)
(6.38541e-05 6.92052e-06 0)
(4.67445e-05 8.02139e-06 0)
(2.74186e-05 7.87944e-06 0)
(1.02089e-05 5.7456e-06 0)
(1.41454e-06 1.41842e-06 0)
(6.79373e-06 -1.365e-05 0)
(2.43877e-05 -2.39807e-05 0)
(4.33583e-05 -2.13569e-05 0)
(5.18919e-05 -1.06796e-05 0)
(4.2784e-05 4.36702e-06 0)
(1.24206e-05 2.15045e-05 0)
(-4.09843e-05 3.93144e-05 0)
(-0.000117942 5.69392e-05 0)
(-0.000218094 7.38701e-05 0)
(-0.000340515 8.98057e-05 0)
(-0.000483927 0.000104579 0)
(-0.00064684 0.000118106 0)
(-0.000827649 0.000130362 0)
(-0.0010247 0.000141354 0)
(-0.00123633 0.000151117 0)
(-0.00146092 0.000159692 0)
(-0.00169687 0.000167132 0)
(-0.00194266 0.000173498 0)
(-0.00219684 0.000178847 0)
(-0.00245802 0.000183238 0)
(-0.00272487 0.000186726 0)
(-0.00299617 0.000189364 0)
(-0.00327072 0.000191201 0)
(-0.00354739 0.000192282 0)
(-0.00382512 0.000192647 0)
(-0.0041029 0.000192329 0)
(-0.00437975 0.000191358 0)
(-0.00465474 0.00018976 0)
(-0.00492696 0.000187555 0)
(-0.00519553 0.000184762 0)
(-0.0054596 0.000181392 0)
(-0.00571833 0.000177456 0)
(-0.0059709 0.00017296 0)
(-0.00621649 0.000167909 0)
(-0.00645429 0.000162307 0)
(-0.00668351 0.000156155 0)
(-0.00690335 0.000149455 0)
(-0.00711302 0.000142207 0)
(-0.00731172 0.000134413 0)
(-0.00749868 0.000126076 0)
(-0.00767312 0.0001172 0)
(-0.00783428 0.000107791 0)
(-0.00798141 9.7859e-05 0)
(-0.00811377 8.74155e-05 0)
(-0.00823066 7.64763e-05 0)
(-0.00833139 6.50607e-05 0)
(-0.00841532 5.31932e-05 0)
(-0.00848183 4.09027e-05 0)
(-0.00853037 2.82229e-05 0)
(-0.00856042 1.51926e-05 0)
(-0.00857153 1.85619e-06 0)
(-0.00856333 -1.17375e-05 0)
(-0.0085355 -2.55335e-05 0)
(-0.00848783 -3.94717e-05 0)
(-0.00842017 -5.34873e-05 0)
(-0.00833249 -6.75101e-05 0)
(-0.00822486 -8.14653e-05 0)
(-0.00809743 -9.5275e-05 0)
(-0.0079505 -0.000108857 0)
(-0.00778447 -0.000122127 0)
(-0.00759985 -0.000134998 0)
(-0.00739728 -0.00014738 0)
(-0.00717754 -0.000159185 0)
(-0.00694152 -0.000170324 0)
(-0.00669022 -0.000180709 0)
(-0.00642479 -0.000190253 0)
(-0.00614647 -0.000198875 0)
(-0.00585663 -0.000206495 0)
(-0.00555674 -0.000213039 0)
(-0.00524836 -0.000218439 0)
(-0.00493316 -0.000222634 0)
(-0.00461285 -0.00022557 0)
(-0.00428926 -0.000227203 0)
(-0.00396423 -0.000227496 0)
(-0.00363966 -0.000226423 0)
(-0.00331749 -0.000223969 0)
(-0.00299964 -0.000220128 0)
(-0.00268806 -0.000214907 0)
(-0.00238467 -0.000208323 0)
(-0.00209136 -0.000200405 0)
(-0.00180995 -0.000191192 0)
(-0.00154221 -0.000180737 0)
(-0.00128983 -0.000169105 0)
(-0.00105438 -0.000156371 0)
(-0.00083732 -0.000142625 0)
(-0.000639958 -0.000127969 0)
(-0.000463446 -0.000112524 0)
(-0.000308743 -9.64258e-05 0)
(-0.00017659 -7.98341e-05 0)
(-6.74713e-05 -6.29379e-05 0)
(1.84327e-05 -4.59652e-05 0)
(8.13082e-05 -2.92002e-05 0)
(0.000121793 -1.30071e-05 0)
(0.000141093 2.12951e-06 0)
(0.000141143 1.55432e-05 0)
(0.000124829 2.62997e-05 0)
(9.61974e-05 3.30841e-05 0)
(6.07562e-05 3.40502e-05 0)
(2.67725e-05 2.68236e-05 0)
(5.70942e-06 1.01839e-05 0)
(6.81092e-06 -2.7817e-05 0)
(2.18615e-05 -4.31991e-05 0)
(3.1973e-05 -3.1335e-05 0)
(2.36507e-05 -2.25414e-06 0)
(-1.15024e-05 3.71495e-05 0)
(-7.82065e-05 8.20347e-05 0)
(-0.000178995 0.00012912 0)
(-0.000314788 0.000176239 0)
(-0.000485312 0.000221981 0)
(-0.000689449 0.000265449 0)
(-0.000925514 0.000306093 0)
(-0.00119146 0.000343597 0)
(-0.001485 0.000377806 0)
(-0.00180373 0.000408676 0)
(-0.00214521 0.000436237 0)
(-0.002507 0.000460567 0)
(-0.00288668 0.000481776 0)
(-0.00328193 0.000499997 0)
(-0.00369048 0.000515369 0)
(-0.00411019 0.000528035 0)
(-0.00453896 0.000538135 0)
(-0.00497484 0.000545803 0)
(-0.00541595 0.000551168 0)
(-0.00586047 0.000554347 0)
(-0.00630671 0.000555444 0)
(-0.00675301 0.000554553 0)
(-0.0071978 0.000551756 0)
(-0.00763957 0.000547122 0)
(-0.00807684 0.000540712 0)
(-0.00850818 0.000532573 0)
(-0.00893221 0.000522746 0)
(-0.00934755 0.000511259 0)
(-0.00975286 0.000498135 0)
(-0.0101468 0.000483393 0)
(-0.0105282 0.000467045 0)
(-0.0108955 0.000449102 0)
(-0.0112477 0.00042957 0)
(-0.0115833 0.00040846 0)
(-0.0119011 0.000385779 0)
(-0.0122 0.000361541 0)
(-0.0124786 0.000335764 0)
(-0.0127357 0.000308472 0)
(-0.0129701 0.000279695 0)
(-0.0131808 0.000249474 0)
(-0.0133665 0.000217857 0)
(-0.0135263 0.000184906 0)
(-0.013659 0.000150693 0)
(-0.0137639 0.000115305 0)
(-0.0138399 7.88406e-05 0)
(-0.0138863 4.14133e-05 0)
(-0.0139024 3.15149e-06 0)
(-0.0138877 -3.58026e-05 0)
(-0.0138417 -7.52922e-05 0)
(-0.013764 -0.000115146 0)
(-0.0136545 -0.000155178 0)
(-0.0135132 -0.000195192 0)
(-0.0133402 -0.000234976 0)
(-0.0131358 -0.000274309 0)
(-0.0129004 -0.000312963 0)
(-0.0126348 -0.000350699 0)
(-0.0123397 -0.000387272 0)
(-0.0120162 -0.000422437 0)
(-0.0116655 -0.000455944 0)
(-0.0112891 -0.000487546 0)
(-0.0108885 -0.000516997 0)
(-0.0104656 -0.00054406 0)
(-0.0100223 -0.000568505 0)
(-0.0095608 -0.000590114 0)
(-0.00908338 -0.000608681 0)
(-0.0085925 -0.000624021 0)
(-0.00809078 -0.000635964 0)
(-0.00758093 -0.000644362 0)
(-0.00706577 -0.000649093 0)
(-0.00654821 -0.00065006 0)
(-0.00603121 -0.000647191 0)
(-0.00551779 -0.000640446 0)
(-0.00501098 -0.000629813 0)
(-0.00451379 -0.000615314 0)
(-0.00402921 -0.000597001 0)
(-0.00356019 -0.000574959 0)
(-0.00310956 -0.000549306 0)
(-0.00268007 -0.000520196 0)
(-0.00227431 -0.000487816 0)
(-0.00189472 -0.000452393 0)
(-0.00154353 -0.000414188 0)
(-0.00122273 -0.000373507 0)
(-0.000934068 -0.000330702 0)
(-0.000678959 -0.000286181 0)
(-0.000458473 -0.000240416 0)
(-0.000273264 -0.000193964 0)
(-0.000123506 -0.000147492 0)
(-8.79763e-06 -0.000101811 0)
(7.19464e-05 -5.79341e-05 0)
(0.000120638 -1.7153e-05 0)
(0.000140204 1.88563e-05 0)
(0.000134806 4.78974e-05 0)
(0.000110006 6.71067e-05 0)
(7.29632e-05 7.2836e-05 0)
(3.40085e-05 6.07844e-05 0)
(7.81588e-06 2.73093e-05 0)
(4.95913e-06 -3.87646e-05 0)
(1.12514e-05 -5.20984e-05 0)
(3.02618e-06 -2.3143e-05 0)
(-3.23738e-05 3.30989e-05 0)
(-0.00010335 0.000106338 0)
(-0.000214969 0.000189088 0)
(-0.000370055 0.000275995 0)
(-0.000569694 0.000363339 0)
(-0.000813625 0.000448582 0)
(-0.0011006 0.00053003 0)
(-0.00142865 0.000606579 0)
(-0.00179533 0.000677552 0)
(-0.00219786 0.000742577 0)
(-0.00263327 0.000801493 0)
(-0.00309848 0.000854286 0)
(-0.00359041 0.000901046 0)
(-0.00410597 0.000941935 0)
(-0.00464215 0.000977161 0)
(-0.005196 0.00100695 0)
(-0.0057647 0.00103156 0)
(-0.0063455 0.00105122 0)
(-0.0069358 0.00106618 0)
(-0.00753307 0.00107666 0)
(-0.0081349 0.00108287 0)
(-0.00873898 0.00108501 0)
(-0.0093431 0.00108325 0)
(-0.00994512 0.00107774 0)
(-0.010543 0.00106862 0)
(-0.0111346 0.00105599 0)
(-0.0117182 0.00103996 0)
(-0.0122917 0.00102059 0)
(-0.0128533 0.000997952 0)
(-0.0134012 0.00097209 0)
(-0.0139337 0.000943044 0)
(-0.0144488 0.000910844 0)
(-0.0149448 0.000875515 0)
(-0.0154201 0.00083708 0)
(-0.0158728 0.000795561 0)
(-0.0163013 0.000750983 0)
(-0.0167039 0.000703381 0)
(-0.0170789 0.000652794 0)
(-0.0174248 0.000599276 0)
(-0.0177399 0.000542896 0)
(-0.0180227 0.000483735 0)
(-0.0182717 0.000421898 0)
(-0.0184856 0.000357508 0)
(-0.0186629 0.000290712 0)
(-0.0188024 0.000221681 0)
(-0.0189031 0.000150612 0)
(-0.0189639 7.77289e-05 0)
(-0.0189839 3.28203e-06 0)
(-0.0189624 -7.24506e-05 0)
(-0.0188988 -0.000149164 0)
(-0.0187927 -0.000226526 0)
(-0.0186439 -0.000304179 0)
(-0.0184524 -0.000381741 0)
(-0.0182184 -0.00045881 0)
(-0.0179424 -0.000534961 0)
(-0.0176249 -0.000609753 0)
(-0.0172669 -0.000682731 0)
(-0.0168696 -0.000753431 0)
(-0.0164344 -0.00082138 0)
(-0.0159628 -0.000886105 0)
(-0.0154568 -0.000947134 0)
(-0.0149186 -0.001004 0)
(-0.0143505 -0.00105626 0)
(-0.0137552 -0.00110347 0)
(-0.0131355 -0.00114521 0)
(-0.0124946 -0.00118111 0)
(-0.0118356 -0.0012108 0)
(-0.011162 -0.00123398 0)
(-0.0104774 -0.00125035 0)
(-0.00978559 -0.00125969 0)
(-0.00909032 -0.00126182 0)
(-0.00839553 -0.00125661 0)
(-0.0077052 -0.00124398 0)
(-0.00702332 -0.00122392 0)
(-0.00635386 -0.00119646 0)
(-0.00570076 -0.00116172 0)
(-0.00506786 -0.00111987 0)
(-0.00445891 -0.00107114 0)
(-0.0038775 -0.00101583 0)
(-0.00332702 -0.000954315 0)
(-0.00281065 -0.000887037 0)
(-0.00233127 -0.000814515 0)
(-0.00189148 -0.000737352 0)
(-0.0014935 -0.000656243 0)
(-0.00113913 -0.00057199 0)
(-0.000829711 -0.000485519 0)
(-0.000566016 -0.000397917 0)
(-0.000348198 -0.000310465 0)
(-0.000175677 -0.000224703 0)
(-4.70176e-05 -0.000142504 0)
(4.02104e-05 -6.61882e-05 0)
(8.96123e-05 1.34409e-06 0)
(0.000106166 5.64436e-05 0)
(9.63383e-05 9.4545e-05 0)
(6.82536e-05 0.000110061 0)
(3.33712e-05 9.64611e-05 0)
(7.9844e-06 4.65965e-05 0)
(2.23287e-06 -4.25216e-05 0)
(-3.85496e-06 -4.33568e-05 0)
(-3.66614e-05 1.19602e-05 0)
(-0.000106311 0.000104126 0)
(-0.000220208 0.000219789 0)
(-0.000383224 0.000348963 0)
(-0.000598073 0.000484282 0)
(-0.000865734 0.000620446 0)
(-0.00118583 0.000753708 0)
(-0.00155694 0.000881467 0)
(-0.00197686 0.00100197 0)
(-0.00244281 0.00111409 0)
(-0.00295162 0.00121715 0)
(-0.00349987 0.00131082 0)
(-0.004084 0.001395 0)
(-0.00470036 0.00146976 0)
(-0.00534533 0.00153529 0)
(-0.00601532 0.00159187 0)
(-0.0067068 0.00163982 0)
(-0.00741635 0.00167948 0)
(-0.00814066 0.00171121 0)
(-0.00887654 0.00173536 0)
(-0.00962091 0.00175229 0)
(-0.0103708 0.00176229 0)
(-0.0111234 0.00176568 0)
(-0.0118758 0.00176271 0)
(-0.0126256 0.00175362 0)
(-0.01337 0.00173863 0)
(-0.0141066 0.0017179 0)
(-0.0148329 0.00169158 0)
(-0.0155466 0.00165981 0)
(-0.0162453 0.00162269 0)
(-0.0169268 0.00158028 0)
(-0.0175888 0.00153268 0)
(-0.0182291 0.00147992 0)
(-0.0188455 0.00142206 0)
(-0.0194357 0.00135914 0)
(-0.0199978 0.0012912 0)
(-0.0205295 0.00121831 0)
(-0.0210288 0.00114052 0)
(-0.0214936 0.00105791 0)
(-0.021922 0.000970576 0)
(-0.022312 0.000878633 0)
(-0.0226617 0.000782227 0)
(-0.0229693 0.000681534 0)
(-0.0232331 0.000576762 0)
(-0.0234515 0.000468157 0)
(-0.0236229 0.000356 0)
(-0.0237461 0.000240616 0)
(-0.0238198 0.000122371 0)
(-0.023843 1.67215e-06 0)
(-0.0238148 -0.000121028 0)
(-0.0237344 -0.000245237 0)
(-0.0236016 -0.000370418 0)
(-0.023416 -0.000495996 0)
(-0.0231776 -0.000621358 0)
(-0.0228868 -0.000745855 0)
(-0.0225441 -0.000868811 0)
(-0.0221504 -0.000989521 0)
(-0.0217068 -0.00110726 0)
(-0.0212147 -0.00122128 0)
(-0.0206758 -0.00133083 0)
(-0.0200922 -0.00143517 0)
(-0.0194663 -0.00153354 0)
(-0.0188007 -0.0016252 0)
(-0.0180982 -0.00170943 0)
(-0.0173623 -0.00178555 0)
(-0.0165962 -0.0018529 0)
(-0.0158039 -0.00191087 0)
(-0.0149892 -0.00195889 0)
(-0.0141564 -0.00199647 0)
(-0.0133098 -0.00202316 0)
(-0.0124541 -0.00203861 0)
(-0.0115937 -0.00204252 0)
(-0.0107336 -0.0020347 0)
(-0.00987846 -0.00201503 0)
(-0.00903323 -0.00198349 0)
(-0.0082027 -0.00194015 0)
(-0.00739164 -0.00188521 0)
(-0.00660472 -0.00181892 0)
(-0.00584646 -0.00174169 0)
(-0.0051212 -0.001654 0)
(-0.00443304 -0.00155646 0)
(-0.0037858 -0.0014498 0)
(-0.00318295 -0.00133487 0)
(-0.0026276 -0.00121263 0)
(-0.00212238 -0.00108424 0)
(-0.00166944 -0.000950989 0)
(-0.00127033 -0.000814373 0)
(-0.000925958 -0.000676134 0)
(-0.000636474 -0.000538301 0)
(-0.000401183 -0.000403276 0)
(-0.000218419 -0.000273926 0)
(-8.54198e-05 -0.000153716 0)
(1.83492e-06 -4.68604e-05 0)
(4.87884e-05 4.14854e-05 0)
(6.2404e-05 0.000105032 0)
(5.13291e-05 0.000136218 0)
(2.7407e-05 0.000126129 0)
(7.00089e-06 6.39298e-05 0)
(-8.32916e-07 -3.75624e-05 0)
(-2.12549e-05 -1.30291e-05 0)
(-8.25381e-05 7.91914e-05 0)
(-0.000191197 0.000216601 0)
(-0.000352967 0.000383257 0)
(-0.000572092 0.000566969 0)
(-0.000850827 0.00075853 0)
(-0.0011898 0.000951138 0)
(-0.00158836 0.00113984 0)
(-0.00204483 0.00132111 0)
(-0.00255672 0.0014925 0)
(-0.00312097 0.00165237 0)
(-0.00373407 0.0017997 0)
(-0.0043922 0.00193392 0)
(-0.00509139 0.00205483 0)
(-0.00582757 0.00216243 0)
(-0.00659662 0.00225693 0)
(-0.00739446 0.00233867 0)
(-0.00821708 0.00240803 0)
(-0.00906056 0.00246547 0)
(-0.00992107 0.00251145 0)
(-0.0107949 0.00254646 0)
(-0.0116785 0.00257095 0)
(-0.0125684 0.00258535 0)
(-0.0134612 0.00259007 0)
(-0.0143537 0.00258548 0)
(-0.0152427 0.00257191 0)
(-0.0161253 0.00254965 0)
(-0.0169985 0.00251895 0)
(-0.0178593 0.00248003 0)
(-0.0187049 0.00243307 0)
(-0.0195327 0.00237823 0)
(-0.0203398 0.00231562 0)
(-0.0211236 0.00224535 0)
(-0.0218815 0.00216751 0)
(-0.0226108 0.00208217 0)
(-0.023309 0.00198943 0)
(-0.0239736 0.00188934 0)
(-0.024602 0.00178201 0)
(-0.0251919 0.00166753 0)
(-0.0257408 0.00154602 0)
(-0.0262463 0.00141765 0)
(-0.0267063 0.00128259 0)
(-0.0271185 0.00114106 0)
(-0.0274808 0.000993338 0)
(-0.0277913 0.000839731 0)
(-0.028048 0.000680606 0)
(-0.0282492 0.000516383 0)
(-0.0283933 0.000347541 0)
(-0.028479 0.000174619 0)
(-0.0285051 -1.78538e-06 0)
(-0.0284705 -0.000181012 0)
(-0.0283746 -0.000362341 0)
(-0.0282167 -0.000544994 0)
(-0.0279968 -0.000728135 0)
(-0.0277148 -0.000910876 0)
(-0.0273712 -0.00109228 0)
(-0.0269666 -0.00127137 0)
(-0.026502 -0.00144712 0)
(-0.0259787 -0.0016185 0)
(-0.0253985 -0.00178442 0)
(-0.0247634 -0.00194382 0)
(-0.0240758 -0.00209562 0)
(-0.0233384 -0.00223872 0)
(-0.0225544 -0.00237208 0)
(-0.0217271 -0.00249467 0)
(-0.0208603 -0.00260549 0)
(-0.0199581 -0.00270361 0)
(-0.0190249 -0.00278816 0)
(-0.0180652 -0.00285833 0)
(-0.0170839 -0.0029134 0)
(-0.0160862 -0.00295276 0)
(-0.0150772 -0.00297587 0)
(-0.0140625 -0.00298235 0)
(-0.0130474 -0.0029719 0)
(-0.0120377 -0.00294436 0)
(-0.0110389 -0.00289972 0)
(-0.0100566 -0.0028381 0)
(-0.00909626 -0.00275975 0)
(-0.00816337 -0.0026651 0)
(-0.00726313 -0.0025547 0)
(-0.00640053 -0.00242929 0)
(-0.00558031 -0.00228976 0)
(-0.00480686 -0.00213716 0)
(-0.00408418 -0.00197275 0)
(-0.00341582 -0.00179795 0)
(-0.00280482 -0.00161443 0)
(-0.00225361 -0.00142406 0)
(-0.00176398 -0.00122901 0)
(-0.00133696 -0.00103178 0)
(-0.000972755 -0.000835242 0)
(-0.000670626 -0.000642749 0)
(-0.000428801 -0.00045825 0)
(-0.00024435 -0.000286415 0)
(-0.000113052 -0.000132812 0)
(-2.92661e-05 -4.10542e-06 0)
(1.41662e-05 9.17154e-05 0)
(2.60726e-05 0.000145154 0)
(1.80648e-05 0.000144978 0)
(5.38577e-06 7.70668e-05 0)
(-3.98017e-06 -2.31822e-05 0)
(-3.96734e-05 4.10721e-05 0)
(-0.000131635 0.000181811 0)
(-0.000282237 0.000374337 0)
(-0.000495129 0.000600682 0)
(-0.000773596 0.000846834 0)
(-0.00111916 0.00110198 0)
(-0.00153187 0.00135797 0)
(-0.00201064 0.00160872 0)
(-0.00255344 0.0018498 0)
(-0.00315747 0.00207808 0)
(-0.00381931 0.00229139 0)
(-0.00453515 0.00248833 0)
(-0.00530083 0.00266808 0)
(-0.00611199 0.00283029 0)
(-0.00696418 0.00297489 0)
(-0.00785289 0.00310209 0)
(-0.00877362 0.00321224 0)
(-0.00972192 0.00330581 0)
(-0.0106934 0.00338335 0)
(-0.0116839 0.00344544 0)
(-0.0126891 0.00349267 0)
(-0.0137051 0.00352562 0)
(-0.0147279 0.00354484 0)
(-0.0157538 0.00355086 0)
(-0.016779 0.00354415 0)
(-0.0178001 0.00352514 0)
(-0.0188135 0.00349422 0)
(-0.0198158 0.00345172 0)
(-0.0208038 0.00339793 0)
(-0.0217742 0.0033331 0)
(-0.0227238 0.00325742 0)
(-0.0236496 0.00317108 0)
(-0.0245484 0.00307423 0)
(-0.0254172 0.00296699 0)
(-0.0262531 0.00284948 0)
(-0.0270531 0.00272182 0)
(-0.0278144 0.00258413 0)
(-0.0285341 0.00243654 0)
(-0.0292093 0.00227921 0)
(-0.0298374 0.00211231 0)
(-0.0304158 0.00193608 0)
(-0.0309418 0.00175076 0)
(-0.0314129 0.00155669 0)
(-0.0318268 0.00135424 0)
(-0.0321812 0.00114385 0)
(-0.0324741 0.000926019 0)
(-0.0327035 0.000701338 0)
(-0.0328675 0.000470464 0)
(-0.0329648 0.000234136 0)
(-0.0329939 -6.82658e-06 0)
(-0.0329537 -0.000251523 0)
(-0.0328435 -0.000498974 0)
(-0.0326627 -0.00074812 0)
(-0.0324111 -0.000997828 0)
(-0.0320887 -0.0012469 0)
(-0.031696 -0.00149406 0)
(-0.0312338 -0.00173798 0)
(-0.0307033 -0.00197731 0)
(-0.0301059 -0.00221062 0)
(-0.0294437 -0.00243649 0)
(-0.028719 -0.00265345 0)
(-0.0279344 -0.00286004 0)
(-0.0270931 -0.00305484 0)
(-0.0261986 -0.0032364 0)
(-0.0252547 -0.00340336 0)
(-0.0242656 -0.00355438 0)
(-0.0232361 -0.00368821 0)
(-0.0221709 -0.00380367 0)
(-0.0210753 -0.00389969 0)
(-0.0199547 -0.00397531 0)
(-0.018815 -0.0040297 0)
(-0.0176619 -0.00406217 0)
(-0.0165016 -0.00407217 0)
(-0.0153404 -0.00405932 0)
(-0.0141844 -0.00402344 0)
(-0.01304 -0.00396449 0)
(-0.0119134 -0.00388265 0)
(-0.0108109 -0.00377827 0)
(-0.00973852 -0.00365193 0)
(-0.00870211 -0.00350442 0)
(-0.00770729 -0.00333671 0)
(-0.00675937 -0.00315004 0)
(-0.00586326 -0.00294584 0)
(-0.00502344 -0.00272581 0)
(-0.0042439 -0.00249192 0)
(-0.00352802 -0.00224638 0)
(-0.00287855 -0.00199177 0)
(-0.0022975 -0.00173097 0)
(-0.00178607 -0.00146732 0)
(-0.00134455 -0.0012046 0)
(-0.000972271 -0.000947202 0)
(-0.000667448 -0.000700182 0)
(-0.000427128 -0.00046945 0)
(-0.000247068 -0.000261923 0)
(-0.000121635 -8.57462e-05 0)
(-4.37146e-05 4.94652e-05 0)
(-4.5764e-06 0.0001324 0)
(6.69612e-06 0.000149736 0)
(3.44958e-06 8.46879e-05 0)
(-7.08162e-06 8.38895e-07 0)
(-5.83685e-05 0.00012004 0)
(-0.000182062 0.000321674 0)
(-0.000376224 0.000579669 0)
(-0.000642175 0.0008746 0)
(-0.000982019 0.00119102 0)
(-0.00139633 0.00151681 0)
(-0.00188442 0.00184264 0)
(-0.00244461 0.00216144 0)
(-0.00307441 0.00246797 0)
(-0.00377061 0.0027584 0)
(-0.00452945 0.00303009 0)
(-0.00534677 0.00328124 0)
(-0.00621807 0.0035108 0)
(-0.00713866 0.00371821 0)
(-0.00810373 0.00390336 0)
(-0.00910841 0.0040664 0)
(-0.0101478 0.00420772 0)
(-0.0112172 0.00432785 0)
(-0.0123117 0.00442743 0)
(-0.0134267 0.00450714 0)
(-0.0145577 0.00456769 0)
(-0.0157002 0.00460977 0)
(-0.0168499 0.00463407 0)
(-0.0180026 0.00464122 0)
(-0.0191543 0.0046318 0)
(-0.0203009 0.00460637 0)
(-0.0214387 0.00456539 0)
(-0.0225638 0.00450928 0)
(-0.0236726 0.00443841 0)
(-0.0247614 0.0043531 0)
(-0.0258267 0.00425361 0)
(-0.0268651 0.00414018 0)
(-0.027873 0.00401301 0)
(-0.0288471 0.00387226 0)
(-0.0297841 0.00371811 0)
(-0.0306807 0.00355073 0)
(-0.0315337 0.00337027 0)
(-0.0323399 0.00317693 0)
(-0.0330962 0.00297093 0)
(-0.0337996 0.00275251 0)
(-0.0344471 0.00252198 0)
(-0.0350358 0.00227971 0)
(-0.0355631 0.00202612 0)
(-0.0360262 0.00176171 0)
(-0.0364227 0.00148706 0)
(-0.0367503 0.00120285 0)
(-0.0370068 0.000909836 0)
(-0.0371903 0.000608893 0)
(-0.0372992 0.000300983 0)
(-0.0373318 -1.28282e-05 0)
(-0.0372872 -0.000331369 0)
(-0.0371643 -0.000653367 0)
(-0.0369626 -0.000977452 0)
(-0.0366818 -0.00130216 0)
(-0.0363222 -0.00162593 0)
(-0.0358842 -0.00194714 0)
(-0.0353686 -0.00226408 0)
(-0.0347768 -0.00257498 0)
(-0.0341105 -0.00287803 0)
(-0.0333718 -0.00317138 0)
(-0.0325634 -0.00345316 0)
(-0.0316881 -0.00372152 0)
(-0.0307495 -0.00397458 0)
(-0.0297514 -0.00421053 0)
(-0.0286981 -0.0044276 0)
(-0.0275942 -0.00462409 0)
(-0.0264448 -0.00479838 0)
(-0.0252553 -0.00494898 0)
(-0.0240315 -0.00507451 0)
(-0.0227793 -0.00517373 0)
(-0.0215051 -0.0052456 0)
(-0.0202155 -0.00528922 0)
(-0.018917 -0.0053039 0)
(-0.0176166 -0.00528918 0)
(-0.0163211 -0.00524479 0)
(-0.0150376 -0.00517071 0)
(-0.0137728 -0.00506718 0)
(-0.0125337 -0.00493467 0)
(-0.0113268 -0.00477392 0)
(-0.0101587 -0.00458595 0)
(-0.00903557 -0.00437206 0)
(-0.00796318 -0.00413381 0)
(-0.00694697 -0.0038731 0)
(-0.00599189 -0.00359212 0)
(-0.00510231 -0.00329339 0)
(-0.004282 -0.00297979 0)
(-0.00353399 -0.00265459 0)
(-0.00286056 -0.00232151 0)
(-0.00226311 -0.00198473 0)
(-0.0017421 -0.00164903 0)
(-0.00129696 -0.00131985 0)
(-0.000926023 -0.00100338 0)
(-0.000626434 -0.000706778 0)
(-0.000394069 -0.000438281 0)
(-0.000223467 -0.00020745 0)
(-0.000107746 -2.54212e-05 0)
(-3.84892e-05 9.48596e-05 0)
(-5.78511e-06 0.00013829 0)
(1.37863e-06 8.60525e-05 0)
(-1.00829e-05 3.44545e-05 0)
(-7.69165e-05 0.00022423 0)
(-0.000232648 0.000499612 0)
(-0.000471044 0.000833818 0)
(-0.000791006 0.00120645 0)
(-0.00119333 0.00160103 0)
(-0.00167749 0.00200439 0)
(-0.0022419 0.00240626 0)
(-0.0028842 0.00279873 0)
(-0.00360131 0.00317583 0)
(-0.00438957 0.00353315 0)
(-0.00524481 0.00386758 0)
(-0.00616248 0.00417697 0)
(-0.00713777 0.00446001 0)
(-0.00816563 0.00471599 0)
(-0.00924094 0.00494468 0)
(-0.0103585 0.00514623 0)
(-0.0115131 0.00532104 0)
(-0.0126995 0.00546969 0)
(-0.0139128 0.00559289 0)
(-0.0151477 0.00569144 0)
(-0.0163996 0.00576615 0)
(-0.0176635 0.00581784 0)
(-0.0189348 0.00584729 0)
(-0.020209 0.00585528 0)
(-0.0214817 0.0058425 0)
(-0.0227484 0.0058096 0)
(-0.024005 0.00575714 0)
(-0.0252473 0.00568564 0)
(-0.0264714 0.00559555 0)
(-0.0276732 0.00548726 0)
(-0.0288489 0.0053611 0)
(-0.0299946 0.00521736 0)
(-0.0311066 0.0050563 0)
(-0.0321812 0.00487815 0)
(-0.0332147 0.00468313 0)
(-0.0342035 0.00447145 0)
(-0.0351441 0.00424335 0)
(-0.036033 0.00399907 0)
(-0.0368669 0.00373891 0)
(-0.0376423 0.00346319 0)
(-0.038356 0.00317232 0)
(-0.039005 0.00286677 0)
(-0.0395863 0.00254707 0)
(-0.0400969 0.00221389 0)
(-0.0405342 0.00186796 0)
(-0.0408956 0.00151015 0)
(-0.0411789 0.0011414 0)
(-0.0413819 0.000762834 0)
(-0.0415027 0.000375648 0)
(-0.0415399 -1.88117e-05 0)
(-0.0414921 -0.000419078 0)
(-0.0413584 -0.000823558 0)
(-0.0411381 -0.00123054 0)
(-0.040831 -0.00163819 0)
(-0.0404373 -0.00204458 0)
(-0.0399574 -0.00244768 0)
(-0.0393925 -0.00284535 0)
(-0.0387438 -0.00323541 0)
(-0.0380132 -0.00361559 0)
(-0.0372032 -0.00398362 0)
(-0.0363164 -0.00433717 0)
(-0.0353561 -0.00467392 0)
(-0.0343261 -0.00499157 0)
(-0.0332305 -0.00528787 0)
(-0.032074 -0.00556061 0)
(-0.0308616 -0.00580769 0)
(-0.0295988 -0.00602712 0)
(-0.0282914 -0.00621703 0)
(-0.0269458 -0.00637572 0)
(-0.0255684 -0.00650167 0)
(-0.0241661 -0.00659357 0)
(-0.022746 -0.00665032 0)
(-0.0213153 -0.00667107 0)
(-0.0198814 -0.00665523 0)
(-0.0184518 -0.0066025 0)
(-0.0170341 -0.00651286 0)
(-0.0156358 -0.00638659 0)
(-0.0142642 -0.00622429 0)
(-0.0129267 -0.00602691 0)
(-0.0116302 -0.0057957 0)
(-0.0103815 -0.0055323 0)
(-0.00918684 -0.00523866 0)
(-0.00805222 -0.00491715 0)
(-0.006983 -0.00457049 0)
(-0.00598395 -0.00420182 0)
(-0.0050592 -0.00381472 0)
(-0.00421213 -0.00341321 0)
(-0.00344528 -0.00300186 0)
(-0.00276031 -0.00258579 0)
(-0.0021579 -0.00217075 0)
(-0.00163768 -0.00176327 0)
(-0.00119818 -0.00137069 0)
(-0.000836726 -0.00100138 0)
(-0.000549441 -0.000664872 0)
(-0.000331168 -0.000372051 0)
(-0.000175397 -0.000135447 0)
(-7.41754e-05 3.05602e-05 0)
(-1.87782e-05 0.000109409 0)
(-7.18937e-07 8.08075e-05 0)
(-1.29638e-05 7.7479e-05 0)
(-9.50877e-05 0.000353532 0)
(-0.000282676 0.000715773 0)
(-0.000565331 0.0011372 0)
(-0.000939542 0.00159686 0)
(-0.00140472 0.00207755 0)
(-0.00195916 0.00256539 0)
(-0.00260027 0.00304935 0)
(-0.00332489 0.00352086 0)
(-0.00412931 0.00397335 0)
(-0.00500931 0.00440192 0)
(-0.00596028 0.00480302 0)
(-0.00697726 0.00517422 0)
(-0.00805507 0.00551397 0)
(-0.00918835 0.00582141 0)
(-0.0103716 0.00609623 0)
(-0.0115994 0.00633855 0)
(-0.0128661 0.00654877 0)
(-0.0141663 0.00672755 0)
(-0.0154946 0.00687566 0)
(-0.0168456 0.006994 0)
(-0.0182142 0.00708348 0)
(-0.0195952 0.00714504 0)
(-0.0209837 0.00717961 0)
(-0.0223747 0.00718804 0)
(-0.0237635 0.00717115 0)
(-0.0251455 0.0071297 0)
(-0.0265162 0.00706435 0)
(-0.027871 0.00697571 0)
(-0.0292056 0.00686431 0)
(-0.0305158 0.00673062 0)
(-0.0317974 0.00657504 0)
(-0.0330461 0.00639793 0)
(-0.0342579 0.0061996 0)
(-0.0354289 0.00598034 0)
(-0.036555 0.00574043 0)
(-0.0376325 0.00548015 0)
(-0.0386573 0.00519979 0)
(-0.0396259 0.00489968 0)
(-0.0405344 0.00458017 0)
(-0.0413794 0.00424171 0)
(-0.0421573 0.00388478 0)
(-0.0428648 0.00350998 0)
(-0.0434986 0.003118 0)
(-0.0440557 0.00270963 0)
(-0.0445331 0.0022858 0)
(-0.044928 0.00184756 0)
(-0.0452381 0.0013961 0)
(-0.0454611 0.000932764 0)
(-0.0455949 0.000459035 0)
(-0.0456379 -2.34492e-05 0)
(-0.0455886 -0.0005129 0)
(-0.0454461 -0.00100738 0)
(-0.0452097 -0.00150481 0)
(-0.0448791 -0.00200296 0)
(-0.0444545 -0.00249949 0)
(-0.0439364 -0.00299194 0)
(-0.0433259 -0.00347772 0)
(-0.0426245 -0.0039542 0)
(-0.0418342 -0.00441863 0)
(-0.0409574 -0.00486824 0)
(-0.0399971 -0.00530024 0)
(-0.0389569 -0.00571183 0)
(-0.0378406 -0.00610021 0)
(-0.0366529 -0.00646267 0)
(-0.0353986 -0.00679654 0)
(-0.0340831 -0.00709929 0)
(-0.0327124 -0.00736851 0)
(-0.0312927 -0.00760194 0)
(-0.0298306 -0.00779752 0)
(-0.0283332 -0.00795343 0)
(-0.0268079 -0.00806807 0)
(-0.0252621 -0.00814012 0)
(-0.0237038 -0.00816856 0)
(-0.0221408 -0.00815266 0)
(-0.0205812 -0.00809207 0)
(-0.0190331 -0.00798676 0)
(-0.0175046 -0.00783708 0)
(-0.0160037 -0.00764377 0)
(-0.0145381 -0.00740796 0)
(-0.0131155 -0.00713119 0)
(-0.0117429 -0.00681543 0)
(-0.0104274 -0.00646308 0)
(-0.00917525 -0.00607697 0)
(-0.00799231 -0.00566041 0)
(-0.00688379 -0.00521719 0)
(-0.0058542 -0.00475161 0)
(-0.00490726 -0.00426851 0)
(-0.00404586 -0.00377332 0)
(-0.00327193 -0.0032721 0)
(-0.00258643 -0.00277165 0)
(-0.00198927 -0.00227956 0)
(-0.00147923 -0.00180432 0)
(-0.00105393 -0.00135549 0)
(-0.000709828 -0.000943827 0)
(-0.000442161 -0.000581471 0)
(-0.000244893 -0.000282205 0)
(-0.000110626 -6.16456e-05 0)
(-3.19008e-05 6.24792e-05 0)
(-2.78252e-06 6.88434e-05 0)
(-1.57204e-05 0.000129652 0)
(-0.000112765 0.000507562 0)
(-0.000331726 0.000969858 0)
(-0.000658235 0.00148967 0)
(-0.00108642 0.00204581 0)
(-0.00161429 0.0026207 0)
(-0.00223891 0.00319993 0)
(-0.00295663 0.00377199 0)
(-0.00376341 0.00432777 0)
(-0.00465482 0.00486025 0)
(-0.00562606 0.00536413 0)
(-0.006672 0.00583554 0)
(-0.00778725 0.00627178 0)
(-0.00896624 0.00667111 0)
(-0.0102032 0.00703255 0)
(-0.0114925 0.00735572 0)
(-0.0128281 0.00764072 0)
(-0.0142044 0.00788798 0)
(-0.0156155 0.00809819 0)
(-0.0170557 0.00827223 0)
(-0.0185194 0.00841107 0)
(-0.0200011 0.00851575 0)
(-0.0214955 0.00858731 0)
(-0.0229972 0.00862678 0)
(-0.0245011 0.00863516 0)
(-0.0260021 0.00861337 0)
(-0.0274954 0.00856226 0)
(-0.028976 0.00848261 0)
(-0.0304393 0.00837512 0)
(-0.0318805 0.00824039 0)
(-0.0332951 0.00807898 0)
(-0.0346787 0.00789136 0)
(-0.0360268 0.00767795 0)
(-0.037335 0.00743914 0)
(-0.038599 0.00717527 0)
(-0.0398147 0.00688669 0)
(-0.0409778 0.00657373 0)
(-0.0420843 0.00623676 0)
(-0.0431301 0.00587619 0)
(-0.0441114 0.00549246 0)
(-0.0450241 0.00508611 0)
(-0.0458647 0.00465774 0)
(-0.0466296 0.00420808 0)
(-0.0473152 0.00373796 0)
(-0.0479182 0.00324834 0)
(-0.0484356 0.00274035 0)
(-0.0488644 0.00221525 0)
(-0.0492019 0.00167447 0)
(-0.0494458 0.00111961 0)
(-0.0495939 0.000552445 0)
(-0.0496443 -2.50688e-05 0)
(-0.0495956 -0.0006108 0)
(-0.0494467 -0.00120244 0)
(-0.0491969 -0.00179752 0)
(-0.0488458 -0.0023934 0)
(-0.0483935 -0.00298729 0)
(-0.0478407 -0.00357626 0)
(-0.0471884 -0.00415727 0)
(-0.0464382 -0.00472718 0)
(-0.0455922 -0.00528273 0)
(-0.0446531 -0.00582067 0)
(-0.0436238 -0.00633766 0)