/*--------------------------------*- C++ -*----------------------------------*\
| =========                 |                                                 |
| \\      /  F ield         | OpenFOAM: The Open Source CFD Toolbox           |
|  \\    /   O peration     | Version:  2512                                  |
|   \\  /    A nd           | Website:  www.openfoam.com                      |
|    \\/     M anipulation  |                                                 |
\*---------------------------------------------------------------------------*/
FoamFile
{
    version     2.0;
    format      ascii;
    arch        "LSB;label=32;scalar=64";
    class       surfaceScalarField;
    location    "0.18";
    object      phi;
}
// * * * * * * * * * * * * * * * * * * * * * * * * * * * * * * * * * * * * * //

dimensions      [0 3 -1 0 0 0 0];

oriented        oriented;

internalField   nonuniform List<scalar> 
19800
(
6.02096e-11
-6.01824e-11
1.5971e-10
-9.95051e-11
2.4085e-10
-8.11457e-11
2.65724e-10
-2.48887e-11
2.18783e-10
4.69425e-11
9.38142e-11
1.24981e-10
-1.09726e-10
2.03541e-10
-3.8901e-10
2.79288e-10
-7.39457e-10
3.50444e-10
-1.15554e-09
4.1607e-10
-1.63132e-09
4.75774e-10
-2.16079e-09
5.29473e-10
-2.73799e-09
5.77209e-10
-3.35713e-09
6.19147e-10
-4.0127e-09
6.55562e-10
-4.69946e-09
6.8676e-10
-5.41248e-09
7.13021e-10
-6.14711e-09
7.34632e-10
-6.89903e-09
7.5193e-10
-7.66424e-09
7.65228e-10
-8.43902e-09
7.7479e-10
-9.21988e-09
7.80859e-10
-1.00036e-08
7.83683e-10
-1.07871e-08
7.83521e-10
-1.15677e-08
7.80597e-10
-1.23428e-08
7.75079e-10
-1.31099e-08
7.67112e-10
-1.38667e-08
7.5685e-10
-1.46112e-08
7.4445e-10
-1.53412e-08
7.30032e-10
-1.60549e-08
7.13676e-10
-1.67504e-08
6.95456e-10
-1.74258e-08
6.75445e-10
-1.80795e-08
6.53706e-10
-1.87098e-08
6.30297e-10
-1.93151e-08
6.05268e-10
-1.98937e-08
5.7865e-10
-2.04442e-08
5.50452e-10
-2.09649e-08
5.20684e-10
-2.14542e-08
4.89374e-10
-2.19108e-08
4.56558e-10
-2.23331e-08
4.22267e-10
-2.27196e-08
3.86519e-10
-2.30689e-08
3.49328e-10
-2.33796e-08
3.10721e-10
-2.36504e-08
2.7074e-10
-2.38798e-08
2.29436e-10
-2.40667e-08
1.86872e-10
-2.42098e-08
1.43114e-10
-2.4308e-08
9.82385e-11
-2.43604e-08
5.23348e-11
-2.43659e-08
5.50059e-12
-2.43237e-08
-4.21482e-11
-2.42333e-08
-9.04767e-11
-2.40939e-08
-1.39338e-10
-2.39053e-08
-1.8857e-10
-2.36673e-08
-2.37999e-10
-2.33799e-08
-2.87436e-10
-2.30432e-08
-3.36681e-10
-2.26577e-08
-3.85521e-10
-2.2224e-08
-4.33732e-10
-2.17429e-08
-4.81073e-10
-2.12156e-08
-5.27284e-10
-2.06435e-08
-5.72094e-10
-2.00283e-08
-6.15235e-10
-1.93719e-08
-6.56434e-10
-1.86764e-08
-6.95418e-10
-1.79445e-08
-7.31908e-10
-1.71789e-08
-7.65622e-10
-1.63826e-08
-7.96275e-10
-1.55591e-08
-8.23586e-10
-1.47118e-08
-8.47284e-10
-1.38447e-08
-8.67108e-10
-1.29619e-08
-8.82811e-10
-1.20677e-08
-8.94161e-10
-1.11667e-08
-9.0094e-10
-1.02638e-08
-9.02945e-10
-9.36381e-09
-8.99991e-10
-8.47189e-09
-8.91919e-10
-7.59329e-09
-8.78595e-10
-6.73339e-09
-8.59905e-10
-5.89762e-09
-8.35765e-10
-5.09151e-09
-8.06112e-10
-4.3206e-09
-7.70913e-10
-3.59043e-09
-7.30167e-10
-2.90652e-09
-6.83914e-10
-2.27428e-09
-6.32241e-10
-1.699e-09
-5.75283e-10
-1.18576e-09
-5.13236e-10
-7.39368e-10
-4.46391e-10
-3.64184e-10
-3.75174e-10
-6.39728e-11
-3.00209e-10
1.58438e-10
-2.22419e-10
3.01648e-10
-1.43218e-10
3.66508e-10
-6.48611e-11
3.57575e-10
8.93573e-12
2.85577e-10
7.19976e-11
1.71674e-10
1.13903e-10
5.54791e-11
1.16198e-10
5.548e-11
1.10075e-10
-1.70262e-10
2.42991e-10
-2.32422e-10
2.96364e-10
-1.34507e-10
2.10753e-10
6.07149e-11
-5.05248e-11
3.08208e-10
-5.04923e-10
5.79379e-10
-1.15717e-09
8.55782e-10
-2.00383e-09
1.12597e-09
-3.03628e-09
1.3829e-09
-4.24265e-09
1.62246e-09
-5.60933e-09
1.84244e-09
-7.12171e-09
2.04184e-09
-8.76488e-09
2.22038e-09
-1.0524e-08
2.37831e-09
-1.23847e-08
2.51625e-09
-1.4333e-08
2.63502e-09
-1.63555e-08
2.73552e-09
-1.84397e-08
2.81875e-09
-2.05735e-08
2.88576e-09
-2.27459e-08
2.93756e-09
-2.49462e-08
2.97512e-09
-2.71647e-08
2.99936e-09
-2.93922e-08
3.01118e-09
-3.16201e-08
3.01143e-09
-3.38404e-08
3.00086e-09
-3.60455e-08
2.98018e-09
-3.82283e-08
2.94999e-09
-4.03824e-08
2.91086e-09
-4.25012e-08
2.86331e-09
-4.4579e-08
2.80779e-09
-4.661e-08
2.74466e-09
-4.85888e-08
2.67427e-09
-5.05102e-08
2.59687e-09
-5.23692e-08
2.51271e-09
-5.41609e-08
2.42201e-09
-5.58806e-08
2.32495e-09
-5.75237e-08
2.22167e-09
-5.90855e-08
2.11228e-09
-6.05617e-08
1.99687e-09
-6.19479e-08
1.87557e-09
-6.32398e-08
1.74848e-09
-6.44332e-08
1.61569e-09
-6.55241e-08
1.47733e-09
-6.65082e-08
1.33351e-09
-6.73819e-08
1.18436e-09
-6.81412e-08
1.03005e-09
-6.87825e-08
8.70787e-10
-6.93025e-08
7.06802e-10
-6.96977e-08
5.38371e-10
-6.99653e-08
3.65799e-10
-7.01024e-08
1.89439e-10
-7.01066e-08
9.69321e-12
-6.99757e-08
-1.72989e-10
-6.97081e-08
-3.58098e-10
-6.93024e-08
-5.45072e-10
-6.87577e-08
-7.33298e-10
-6.80735e-08
-9.22112e-10
-6.72502e-08
-1.1108e-09
-6.62883e-08
-1.29859e-09
-6.51891e-08
-1.48467e-09
-6.39547e-08
-1.66818e-09
-6.25875e-08
-1.8482e-09
-6.1091e-08
-2.02379e-09
-5.94691e-08
-2.19396e-09
-5.77267e-08
-2.35768e-09
-5.58692e-08
-2.51394e-09
-5.39029e-08
-2.66169e-09
-5.1835e-08
-2.79987e-09
-4.96732e-08
-2.92744e-09
-4.74261e-08
-3.04334e-09
-4.51031e-08
-3.14655e-09
-4.27144e-08
-3.23605e-09
-4.02706e-08
-3.31088e-09
-3.77833e-08
-3.37012e-09
-3.52645e-08
-3.4129e-09
-3.27271e-08
-3.43841e-09
-3.01841e-08
-3.44591e-09
-2.76493e-08
-3.43474e-09
-2.51369e-08
-3.40431e-09
-2.26614e-08
-3.35414e-09
-2.02375e-08
-3.28385e-09
-1.78801e-08
-3.19315e-09
-1.56043e-08
-3.08188e-09
-1.34253e-08
-2.94998e-09
-1.13579e-08
-2.79757e-09
-9.41685e-09
-2.62492e-09
-7.61659e-09
-2.43249e-09
-5.97088e-09
-2.22099e-09
-4.4927e-09
-1.99141e-09
-3.19391e-09
-1.74519e-09
-2.0848e-09
-1.48429e-09
-1.17351e-09
-1.21151e-09
-4.65093e-10
-9.30835e-10
3.97307e-11
-6.48038e-10
3.4655e-10
-3.71681e-10
4.69986e-10
-1.14514e-10
4.37835e-10
1.04139e-10
2.9638e-10
2.55364e-10
1.15961e-10
2.96619e-10
1.71439e-10
8.66446e-11
-2.56911e-10
1.47864e-10
-2.93625e-10
6.33837e-11
-5.00183e-11
-2.37786e-10
3.6189e-10
-8.00211e-10
8.70636e-10
-1.64723e-09
1.42639e-09
-2.78669e-09
1.99524e-09
-4.21549e-09
2.55475e-09
-5.92298e-09
3.0904e-09
-7.89356e-09
3.59304e-09
-1.01084e-08
4.05731e-09
-1.25469e-08
4.48031e-09
-1.51874e-08
4.86087e-09
-1.80081e-08
5.19901e-09
-2.09874e-08
5.49554e-09
-2.41041e-08
5.75179e-09
-2.7338e-08
5.96943e-09
-3.06696e-08
6.15033e-09
-3.40803e-08
6.29647e-09
-3.75526e-08
6.40986e-09
-4.10699e-08
6.49247e-09
-4.46168e-08
6.54621e-09
-4.81785e-08
6.57291e-09
-5.17414e-08
6.5743e-09
-5.52926e-08
6.55199e-09
-5.88198e-08
6.50744e-09
-6.23118e-08
6.44196e-09
-6.57577e-08
6.35678e-09
-6.91474e-08
6.253e-09
-7.24712e-08
6.13156e-09
-7.57198e-08
5.9933e-09
-7.88845e-08
5.83895e-09
-8.19568e-08
5.66914e-09
-8.49285e-08
5.48441e-09
-8.77917e-08
5.28523e-09
-9.05388e-08
5.07202e-09
-9.31622e-08
4.84511e-09
-9.56547e-08
4.60478e-09
-9.80092e-08
4.35132e-09
-1.00219e-07
4.08497e-09
-1.02276e-07
3.80599e-09
-1.04175e-07
3.51463e-09
-1.05909e-07
3.21117e-09
-1.07471e-07
2.89591e-09
-1.08856e-07
2.56917e-09
-1.10057e-07
2.23134e-09
-1.11069e-07
1.8829e-09
-1.11887e-07
1.52436e-09
-1.12505e-07
1.15635e-09
-1.12919e-07
7.79553e-10
-1.13124e-07
3.94757e-10
-1.13117e-07
2.84941e-12
-1.12895e-07
-3.95174e-10
-1.12455e-07
-7.98209e-10
-1.11795e-07
-1.20503e-09
-1.10914e-07
-1.61431e-09
-1.09812e-07
-2.02461e-09
-1.08488e-07
-2.43436e-09
-1.06945e-07
-2.84191e-09
-1.05184e-07
-3.24551e-09
-1.03209e-07
-3.64328e-09
-1.01024e-07
-4.03328e-09
-9.86339e-08
-4.41345e-09
-9.60462e-08
-4.78168e-09
-9.32681e-08
-5.13581e-09
-9.03084e-08
-5.47364e-09
-8.71772e-08
-5.79291e-09
-8.38857e-08
-6.09139e-09
-8.04463e-08
-6.36681e-09
-7.68727e-08
-6.61695e-09
-7.31796e-08
-6.83961e-09
-6.9383e-08
-7.03265e-09
-6.54999e-08
-7.19403e-09
-6.15482e-08
-7.32178e-09
-5.7547e-08
-7.41407e-09
-5.35162e-08
-7.46918e-09
-4.94766e-08
-7.48554e-09
-4.54496e-08
-7.46178e-09
-4.14572e-08
-7.3967e-09
-3.7522e-08
-7.28931e-09
-3.3667e-08
-7.13883e-09
-2.99154e-08
-6.94475e-09
-2.62905e-08
-6.7068e-09
-2.28154e-08
-6.42503e-09
-1.95132e-08
-6.09981e-09
-1.64062e-08
-5.73191e-09
-1.35161e-08
-5.32256e-09
-1.08636e-08
-4.87356e-09
-8.46757e-09
-4.38741e-09
-6.34521e-09
-3.86755e-09
-4.51082e-09
-3.31869e-09
-2.9751e-09
-2.74724e-09
-1.74383e-09
-2.16211e-09
-8.16195e-10
-1.57567e-09
-1.82488e-10
-1.00539e-09
1.78999e-10
-4.76006e-10
3.05907e-10
-2.27685e-11
2.56312e-10
3.04958e-10
1.13807e-10
4.3912e-10
2.85245e-10
3.00475e-11
-2.86977e-10
-4.83561e-11
-2.15228e-10
-3.46796e-10
2.48428e-10
-9.36963e-10
9.52048e-10
-1.86421e-09
1.79789e-09
-3.15323e-09
2.71542e-09
-4.81265e-09
3.65466e-09
-6.8391e-09
4.58119e-09
-9.22045e-09
5.47174e-09
-1.19384e-08
6.31103e-09
-1.49706e-08
7.08947e-09
-1.82918e-08
7.80151e-09
-2.18754e-08
8.4445e-09
-2.56942e-08
9.01778e-09
-2.97208e-08
9.52211e-09
-3.39283e-08
9.95924e-09
-3.82904e-08
1.03315e-08
-4.27819e-08
1.06418e-08
-4.73786e-08
1.08932e-08
-5.20574e-08
1.10887e-08
-5.67965e-08
1.12316e-08
-6.15752e-08
1.13249e-08
-6.63739e-08
1.13716e-08
-7.11743e-08
1.13747e-08
-7.59589e-08
1.13367e-08
-8.07115e-08
1.126e-08
-8.54166e-08
1.1147e-08
-9.00595e-08
1.09997e-08
-9.46264e-08
1.08199e-08
-9.91041e-08
1.06093e-08
-1.0348e-07
1.03693e-08
-1.07742e-07
1.01012e-08
-1.11879e-07
9.80605e-09
-1.1588e-07
9.4849e-09
-1.19733e-07
9.13855e-09
-1.23429e-07
8.76774e-09
-1.26957e-07
8.37308e-09
-1.30307e-07
7.95513e-09
-1.3347e-07
7.51442e-09
-1.36437e-07
7.05141e-09
-1.39197e-07
6.56659e-09
-1.41743e-07
6.06044e-09
-1.44065e-07
5.53348e-09
-1.46156e-07
4.98626e-09
-1.48006e-07
4.41942e-09
-1.49608e-07
3.83367e-09
-1.50955e-07
3.22984e-09
-1.5204e-07
2.60888e-09
-1.52855e-07
1.97187e-09
-1.53396e-07
1.32003e-09
-1.53656e-07
6.54747e-10
-1.5363e-07
-2.2426e-11
-1.53316e-07
-7.09757e-10
-1.52709e-07
-1.40533e-09
-1.51807e-07
-2.10704e-09
-1.50608e-07
-2.8126e-09
-1.49114e-07
-3.51952e-09
-1.47323e-07
-4.22513e-09
-1.45238e-07
-4.92659e-09
-1.42863e-07
-5.62087e-09
-1.40201e-07
-6.30479e-09
-1.37259e-07
-6.97502e-09
-1.34045e-07
-7.62807e-09
-1.30566e-07
-8.26035e-09
-1.26834e-07
-8.86817e-09
-1.2286e-07
-9.44778e-09
-1.18657e-07
-9.99536e-09
-1.14241e-07
-1.05071e-08
-1.09629e-07
-1.09792e-08
-1.04838e-07
-1.14078e-08
-9.98885e-08
-1.17893e-08
-9.4801e-08
-1.21201e-08
-8.95985e-08
-1.23966e-08
-8.43047e-08
-1.26156e-08
-7.89448e-08
-1.27739e-08
-7.35452e-08
-1.28688e-08
-6.81331e-08
-1.28976e-08
-6.2737e-08
-1.28579e-08
-5.73857e-08
-1.2748e-08
-5.21091e-08
-1.2566e-08
-4.6937e-08
-1.23108e-08
-4.19e-08
-1.19818e-08
-3.70284e-08
-1.15785e-08
-3.23522e-08
-1.11012e-08
-2.79012e-08
-1.05508e-08
-2.37041e-08
-9.92896e-09
-1.97887e-08
-9.23797e-09
-1.6181e-08
-8.48129e-09
-1.29048e-08
-7.66363e-09
-9.98102e-09
-6.79128e-09
-7.42702e-09
-5.87269e-09
-5.25516e-09
-4.91911e-09
-3.4716e-09
-3.94567e-09
-2.07447e-09
-2.97281e-09
-1.05158e-09
-2.02828e-09
-3.77648e-10
-1.14993e-09
-1.09817e-11
-3.89433e-10
1.10439e-10
1.83534e-10
7.32497e-11
4.76307e-10
3.58495e-10
-4.36228e-11
-2.43354e-10
-2.99522e-10
4.06568e-11
-8.60238e-10
8.09147e-10
-1.78887e-09
1.88068e-09
-3.12589e-09
3.13489e-09
-4.89325e-09
4.48278e-09
-7.0979e-09
5.85931e-09
-9.73494e-09
7.21823e-09
-1.27904e-08
8.52724e-09
-1.62438e-08
9.76438e-09
-2.00696e-08
1.09153e-08
-2.42393e-08
1.19712e-08
-2.87223e-08
1.29275e-08
-3.34869e-08
1.37824e-08
-3.85013e-08
1.45365e-08
-4.37336e-08
1.51916e-08
-4.9153e-08
1.57509e-08
-5.47291e-08
1.62179e-08
-6.04329e-08
1.6597e-08
-6.62365e-08
1.68924e-08
-7.21135e-08
1.71086e-08
-7.80387e-08
1.725e-08
-8.3988e-08
1.7321e-08
-8.99389e-08
1.73256e-08
-9.587e-08
1.72677e-08
-1.01761e-07
1.7151e-08
-1.07593e-07
1.69787e-08
-1.13347e-07
1.6754e-08
-1.19007e-07
1.64795e-08
-1.24555e-07
1.61578e-08
-1.29977e-07
1.57909e-08
-1.35257e-07
1.5381e-08
-1.4038e-07
1.49296e-08
-1.45334e-07
1.44383e-08
-1.50103e-07
1.39084e-08
-1.54677e-07
1.3341e-08
-1.59041e-07
1.27372e-08
-1.63183e-07
1.20978e-08
-1.67093e-07
1.14237e-08
-1.70757e-07
1.07156e-08
-1.74165e-07
9.9744e-09
-1.77305e-07
9.20085e-09
-1.80167e-07
8.39579e-09
-1.82741e-07
7.56013e-09
-1.85017e-07
6.69488e-09
-1.86984e-07
5.8012e-09
-1.88635e-07
4.88039e-09
-1.8996e-07
3.93393e-09
-1.90952e-07
2.96351e-09
-1.91603e-07
1.971e-09
-1.91906e-07
9.58558e-10
-1.91857e-07
-7.1441e-11
-1.91451e-07
-1.11635e-09
-1.90683e-07
-2.17325e-09
-1.89551e-07
-3.23893e-09
-1.88054e-07
-4.30993e-09
-1.86191e-07
-5.38248e-09
-1.83963e-07
-6.45254e-09
-1.81374e-07
-7.51582e-09
-1.78427e-07
-8.56775e-09
-1.75128e-07
-9.60355e-09
-1.71485e-07
-1.06182e-08
-1.67507e-07
-1.16064e-08
-1.63204e-07
-1.25629e-08
-1.5859e-07
-1.34821e-08
-1.5368e-07
-1.43583e-08
-1.48489e-07
-1.51859e-08
-1.43037e-07
-1.59592e-08
-1.37344e-07
-1.66724e-08
-1.31432e-07
-1.73198e-08
-1.25325e-07
-1.78961e-08
-1.1905e-07
-1.83957e-08
-1.12633e-07
-1.88136e-08
-1.06103e-07
-1.91448e-08
-9.94927e-08
-1.93847e-08
-9.28324e-08
-1.95291e-08
-8.61558e-08
-1.95742e-08
-7.94972e-08
-1.95166e-08
-7.28917e-08
-1.93534e-08
-6.63753e-08
-1.90824e-08
-5.99841e-08
-1.8702e-08
-5.37549e-08
-1.82111e-08
-4.77239e-08
-1.76095e-08
-4.19272e-08
-1.68979e-08
-3.64002e-08
-1.60778e-08
-3.11771e-08
-1.51521e-08
-2.62904e-08
-1.41246e-08
-2.17707e-08
-1.3001e-08
-1.76456e-08
-1.17888e-08
-1.39391e-08
-1.04977e-08
-1.0671e-08
-9.14085e-09
-7.85494e-09
-7.73513e-09
-5.49782e-09
-6.30279e-09
-3.5976e-09
-4.87305e-09
-2.14146e-09
-3.48443e-09
-1.1035e-09
-2.18788e-09
-4.42131e-10
-1.0508e-09
-9.72329e-11
-1.61365e-10
1.32258e-11
3.65849e-10
3.71721e-10
-1.23434e-10
-1.19907e-10
-5.76596e-10
4.93818e-10
-1.42767e-09
1.66022e-09
-2.72545e-09
3.17847e-09
-4.50131e-09
4.91075e-09
-6.77132e-09
6.75279e-09
-9.53846e-09
8.62644e-09
-1.27948e-08
1.04746e-08
-1.6524e-08
1.22564e-08
-2.07027e-08
1.39431e-08
-2.53029e-08
1.55155e-08
-3.0293e-08
1.69613e-08
-3.56391e-08
1.82736e-08
-4.13061e-08
1.94494e-08
-4.72581e-08
2.04885e-08
-5.34596e-08
2.13931e-08
-5.98753e-08
2.21666e-08
-6.6471e-08
2.28136e-08
-7.32134e-08
2.33394e-08
-8.00706e-08
2.37495e-08
-8.70119e-08
2.40499e-08
-9.40082e-08
2.42463e-08
-1.01032e-07
2.43444e-08
-1.08056e-07
2.43497e-08
-1.15056e-07
2.42675e-08
-1.22007e-07
2.41027e-08
-1.28888e-07
2.38597e-08
-1.35677e-07
2.35429e-08
-1.42353e-07
2.31559e-08
-1.48898e-07
2.27021e-08
-1.55292e-07
2.21848e-08
-1.61517e-07
2.16065e-08
-1.67557e-07
2.09696e-08
-1.73395e-07
2.02764e-08
-1.79016e-07
1.95287e-08
-1.84403e-07
1.87281e-08
-1.89542e-07
1.78761e-08
-1.94418e-07
1.69741e-08
-1.99017e-07
1.60232e-08
-2.03327e-07
1.50248e-08
-2.07332e-07
1.39798e-08
-2.11021e-07
1.28896e-08
-2.1438e-07
1.17554e-08
-2.17399e-07
1.05785e-08
-2.20064e-07
9.36048e-09
-2.22366e-07
8.10293e-09
-2.24294e-07
6.80777e-09
-2.25837e-07
5.47713e-09
-2.26987e-07
4.11342e-09
-2.27735e-07
2.71933e-09
-2.28074e-07
1.2979e-09
-2.27998e-07
-1.47517e-10
-2.27501e-07
-1.61318e-09
-2.2658e-07
-3.09498e-09
-2.2523e-07
-4.58844e-09
-2.23451e-07
-6.08868e-09
-2.21243e-07
-7.59045e-09
-2.18608e-07
-9.08813e-09
-2.15548e-07
-1.05757e-08
-2.12069e-07
-1.20469e-08
-2.08177e-07
-1.34949e-08
-2.03883e-07
-1.49129e-08
-1.99196e-07
-1.62936e-08
-1.94129e-07
-1.76294e-08
-1.88698e-07
-1.89128e-08
-1.82921e-07
-2.0136e-08
-1.76815e-07
-2.1291e-08
-1.70404e-07
-2.23701e-08
-1.63712e-07
-2.33652e-08
-1.56763e-07
-2.42686e-08
-1.49586e-07
-2.50727e-08
-1.42212e-07
-2.57701e-08
-1.34672e-07
-2.63537e-08
-1.27e-07
-2.68167e-08
-1.19232e-07
-2.71529e-08
-1.11404e-07
-2.73566e-08
-1.03556e-07
-2.74224e-08
-9.57268e-08
-2.73459e-08
-8.79569e-08
-2.71233e-08
-8.02878e-08
-2.67516e-08
-7.27612e-08
-2.62286e-08
-6.54189e-08
-2.55533e-08
-5.83028e-08
-2.47256e-08
-5.1454e-08
-2.37467e-08
-4.49125e-08
-2.26193e-08
-3.87173e-08
-2.13473e-08
-3.2905e-08
-1.99369e-08
-2.75098e-08
-1.83962e-08
-2.25627e-08
-1.67359e-08
-1.80904e-08
-1.497e-08
-1.41145e-08
-1.31167e-08
-1.06506e-08
-1.1199e-08
-7.70657e-09
-9.24686e-09
-5.28128e-09
-7.29834e-09
-3.36306e-09
-5.40265e-09
-1.92781e-09
-3.62312e-09
-9.37277e-10
-2.04134e-09
-3.37204e-10
-7.61437e-10
-5.56037e-11
8.42494e-11
3.16115e-10
-2.04172e-10
8.42653e-11
-8.62438e-10
1.15208e-09
-2.01727e-09
2.81505e-09
-3.70039e-09
4.8616e-09
-5.93135e-09
7.14171e-09
-8.7179e-09
9.53934e-09
-1.20571e-08
1.19657e-08
-1.59368e-08
1.43543e-08
-2.03369e-08
1.66565e-08
-2.52313e-08
1.88375e-08
-3.0589e-08
2.08732e-08
-3.63756e-08
2.27479e-08
-4.25542e-08
2.44522e-08
-4.90865e-08
2.59817e-08
-5.59336e-08
2.73356e-08
-6.30563e-08
2.85158e-08
-7.04162e-08
2.95264e-08
-7.79752e-08
3.03727e-08
-8.56967e-08
3.10609e-08
-9.35451e-08
3.15979e-08
-1.01486e-07
3.1991e-08
-1.09487e-07
3.22474e-08
-1.17517e-07
3.23742e-08
-1.25546e-07
3.23785e-08
-1.33545e-07
3.2267e-08
-1.41489e-07
3.20458e-08
-1.4935e-07
3.17209e-08
-1.57104e-07
3.12976e-08
-1.6473e-07
3.0781e-08
-1.72203e-07
3.01754e-08
-1.79503e-07
2.94849e-08
-1.8661e-07
2.87131e-08
-1.93503e-07
2.78632e-08
-2.00165e-07
2.69381e-08
-2.06577e-07
2.59403e-08
-2.1272e-07
2.4872e-08
-2.1858e-07
2.37352e-08
-2.24137e-07
2.25319e-08
-2.29378e-07
2.12637e-08
-2.34285e-07
1.99322e-08
-2.38845e-07
1.85392e-08
-2.43041e-07
1.70863e-08
-2.46861e-07
1.55751e-08
-2.5029e-07
1.40077e-08
-2.53316e-07
1.2386e-08
-2.55925e-07
1.07124e-08
-2.58107e-07
8.98937e-09
-2.5985e-07
7.21988e-09
-2.61143e-07
5.40714e-09
-2.61979e-07
3.5548e-09
-2.62348e-07
1.6669e-09
-2.62243e-07
-2.52055e-10
-2.61659e-07
-2.1971e-09
-2.60592e-07
-4.16277e-09
-2.59037e-07
-6.14313e-09
-2.56994e-07
-8.13173e-09
-2.54463e-07
-1.01216e-08
-2.51445e-07
-1.21054e-08
-2.47946e-07
-1.40751e-08
-2.43971e-07
-1.60224e-08
-2.39527e-07
-1.79385e-08
-2.34626e-07
-1.98143e-08
-2.29279e-07
-2.16402e-08
-2.23502e-07
-2.34064e-08
-2.17312e-07
-2.5103e-08
-2.10728e-07
-2.67196e-08
-2.03773e-07
-2.82459e-08
-1.96472e-07
-2.96717e-08
-1.8885e-07
-3.09866e-08
-1.80938e-07
-3.21804e-08
-1.72768e-07
-3.32432e-08
-1.64373e-07
-3.41654e-08
-1.55789e-07
-3.49377e-08
-1.47054e-07
-3.55513e-08
-1.38209e-07
-3.59982e-08
-1.29294e-07
-3.62708e-08
-1.20354e-07
-3.63626e-08
-1.11433e-07
-3.62676e-08
-1.02575e-07
-3.59811e-08
-9.38271e-08
-3.54993e-08
-8.52359e-08
-3.48197e-08
-7.6848e-08
-3.39412e-08
-6.87095e-08
-3.28641e-08
-6.08661e-08
-3.15901e-08
-5.33621e-08
-3.01232e-08
-4.62404e-08
-2.84691e-08
-3.95411e-08
-2.66361e-08
-3.33019e-08
-2.46354e-08
-2.75565e-08
-2.24813e-08
-2.23342e-08
-2.01924e-08
-1.76587e-08
-1.77921e-08
-1.35475e-08
-1.53103e-08
-1.00103e-08
-1.27841e-08
-7.04791e-09
-1.02607e-08
-4.65131e-09
-7.79924e-09
-2.80011e-09
-5.47432e-09
-1.46168e-09
-3.37978e-09
-5.90343e-10
-1.63277e-09
-1.27126e-10
-3.78971e-10
1.88985e-10
-2.83277e-10
3.67546e-10
-1.14696e-09
2.01577e-09
-2.60905e-09
4.27712e-09
-4.68317e-09
6.93572e-09
-7.3755e-09
9.83404e-09
-1.06839e-08
1.28478e-08
-1.45981e-08
1.58799e-08
-1.91003e-08
1.88565e-08
-2.41662e-08
2.17223e-08
-2.97658e-08
2.44372e-08
-3.58652e-08
2.69726e-08
-4.24268e-08
2.93095e-08
-4.9411e-08
3.14364e-08
-5.67767e-08
3.33473e-08
-6.44819e-08
3.50408e-08
-7.24847e-08
3.65186e-08
-8.07433e-08
3.77851e-08
-8.92169e-08
3.88463e-08
-9.78656e-08
3.97096e-08
-1.06651e-07
4.0383e-08
-1.15535e-07
4.08752e-08
-1.24482e-07
4.11949e-08
-1.33459e-07
4.13508e-08
-1.42432e-07
4.13514e-08
-1.5137e-07
4.12048e-08
-1.60243e-07
4.09189e-08
-1.69023e-07
4.05008e-08
-1.77682e-07
3.99572e-08
-1.86196e-07
3.92943e-08
-1.94538e-07
3.85178e-08
-2.02686e-07
3.76327e-08
-2.10616e-07
3.66435e-08
-2.18307e-07
3.55545e-08
-2.25738e-07
3.43691e-08
-2.32889e-07
3.30907e-08
-2.39739e-07
3.17222e-08
-2.4627e-07
3.02663e-08
-2.52464e-07
2.87253e-08
-2.58301e-07
2.71015e-08
-2.63766e-07
2.53972e-08
-2.68842e-07
2.36145e-08
-2.73511e-07
2.17556e-08
-2.77759e-07
1.98228e-08
-2.8157e-07
1.78187e-08
-2.84929e-07
1.57459e-08
-2.87824e-07
1.36074e-08
-2.90242e-07
1.14065e-08
-2.92169e-07
9.14718e-09
-2.93595e-07
6.83343e-09
-2.9451e-07
4.46998e-09
-2.94906e-07
2.06205e-09
-2.94773e-07
-3.84605e-10
-2.94106e-07
-2.86364e-09
-2.92901e-07
-5.36809e-09
-2.91154e-07
-7.89038e-09
-2.88863e-07
-1.04223e-08
-2.8603e-07
-1.29551e-08
-2.82656e-07
-1.54793e-08
-2.78746e-07
-1.79849e-08
-2.74307e-07
-2.04613e-08
-2.69348e-07
-2.28974e-08
-2.63881e-07
-2.52817e-08
-2.57919e-07
-2.76021e-08
-2.51479e-07
-2.98462e-08
-2.44581e-07
-3.20015e-08
-2.37245e-07
-3.40549e-08
-2.29498e-07
-3.59936e-08
-2.21365e-07
-3.78045e-08
-2.12877e-07
-3.94747e-08
-2.04066e-07
-4.09914e-08
-1.94967e-07
-4.23421e-08
-1.85618e-07
-4.35147e-08
-1.76058e-07
-4.44976e-08
-1.66329e-07
-4.528e-08
-1.56475e-07
-4.58518e-08
-1.46543e-07
-4.62035e-08
-1.36578e-07
-4.6327e-08
-1.26631e-07
-4.6215e-08
-1.1675e-07
-4.58619e-08
-1.06986e-07
-4.52631e-08
-9.73903e-08
-4.44157e-08
-8.80131e-08
-4.33185e-08
-7.89049e-08
-4.19722e-08
-7.01154e-08
-4.03796e-08
-6.16927e-08
-3.85459e-08
-5.3683e-08
-3.64788e-08
-4.61299e-08
-3.41892e-08
-3.9074e-08
-3.16913e-08
-3.25517e-08
-2.90036e-08
-2.65948e-08
-2.61493e-08
-2.12295e-08
-2.31575e-08
-1.64754e-08
-2.00643e-08
-1.23448e-08
-1.69147e-08
-8.84153e-09
-1.3764e-08
-5.96022e-09
-1.06806e-08
-3.68563e-09
-7.74891e-09
-1.9923e-09
-5.07311e-09
-8.44654e-10
-2.78042e-09
-1.97853e-10
-1.02578e-09
-8.8689e-12
-3.594e-10
7.26946e-10
-1.42451e-09
3.08089e-09
-3.19083e-09
6.04343e-09
-5.65417e-09
9.39905e-09
-8.80674e-09
1.29866e-08
-1.26356e-08
1.66766e-08
-1.7122e-08
2.03663e-08
-2.22418e-08
2.39762e-08
-2.79653e-08
2.74459e-08
-3.42586e-08
3.07305e-08
-4.1084e-08
3.37979e-08
-4.84008e-08
3.66264e-08
-5.61665e-08
3.92021e-08
-6.43372e-08
4.1518e-08
-7.28682e-08
4.35718e-08
-8.17149e-08
4.53653e-08
-9.08328e-08
4.6903e-08
-1.00178e-07
4.81918e-08
-1.09709e-07
4.92401e-08
-1.19383e-07
5.00571e-08
-1.29161e-07
5.06529e-08
-1.39003e-07
5.10376e-08
-1.48874e-07
5.12216e-08
-1.58737e-07
5.12148e-08
-1.6856e-07
5.1027e-08
-1.78308e-07
5.06675e-08
-1.87952e-07
5.01449e-08
-1.97462e-07
4.94673e-08
-2.0681e-07
4.86422e-08
-2.15969e-07
4.76764e-08
-2.24912e-07
4.65761e-08
-2.33616e-07
4.53469e-08
-2.42055e-07
4.39938e-08
-2.50207e-07
4.25214e-08
-2.5805e-07
4.09338e-08
-2.65563e-07
3.92344e-08
-2.72723e-07
3.74268e-08
-2.79512e-07
3.5514e-08
-2.85909e-07
3.34989e-08
-2.91896e-07
3.13843e-08
-2.97455e-07
2.91729e-08
-3.02567e-07
2.68676e-08
-3.07215e-07
2.44713e-08
-3.11384e-07
2.19872e-08
-3.15057e-07
1.94187e-08
-3.18219e-07
1.67697e-08
-3.20857e-07
1.40444e-08
-3.22957e-07
1.12474e-08
-3.24508e-07
8.38406e-09
-3.25498e-07
5.46011e-09
-3.25918e-07
2.48207e-09
-3.25759e-07
-5.42912e-10
-3.25016e-07
-3.60698e-09
-3.23683e-07
-6.70153e-09
-3.21756e-07
-9.81722e-09
-3.19234e-07
-1.2944e-08
-3.16118e-07
-1.60709e-08
-3.12411e-07
-1.91864e-08
-3.08118e-07
-2.22782e-08
-3.03246e-07
-2.53334e-08
-2.97805e-07
-2.83382e-08
-2.91808e-07
-3.12785e-08
-2.85271e-07
-3.41396e-08
-2.78211e-07
-3.69063e-08
-2.70649e-07
-3.95632e-08
-2.6261e-07
-4.20944e-08
-2.54119e-07
-4.44842e-08
-2.45207e-07
-4.67165e-08
-2.35906e-07
-4.87757e-08
-2.26251e-07
-5.06462e-08
-2.16281e-07
-5.23126e-08
-2.06035e-07
-5.37604e-08
-1.95557e-07
-5.49754e-08
-1.84893e-07
-5.59445e-08
-1.74089e-07
-5.66553e-08
-1.63196e-07
-5.70966e-08
-1.52264e-07
-5.72585e-08
-1.41347e-07
-5.71325e-08
-1.30497e-07
-5.67116e-08
-1.1977e-07
-5.59907e-08
-1.09219e-07
-5.49665e-08
-9.88993e-08
-5.36379e-08
-8.88654e-08
-5.2006e-08
-7.91703e-08
-5.00748e-08
-6.98654e-08
-4.78508e-08
-6.10003e-08
-4.5344e-08
-5.26216e-08
-4.25678e-08
-4.47728e-08
-3.95401e-08
-3.74931e-08
-3.62833e-08
-3.08169e-08
-3.28255e-08
-2.4773e-08
-2.92014e-08
-1.93838e-08
-2.54535e-08
-1.46646e-08
-2.16339e-08
-1.0623e-08
-1.78056e-08
-7.25828e-09
-1.40453e-08
-4.5612e-09
-1.0446e-08
-2.51436e-09
-7.11995e-09
-1.09285e-09
-4.20194e-09
-2.65857e-10
-1.85278e-09
-2.74726e-10
-4.31954e-10
1.15888e-09
-1.69202e-09
4.34097e-09
-3.75548e-09
8.1069e-09
-6.60122e-09
1.22448e-08
-1.02075e-08
1.65929e-08
-1.45503e-08
2.10193e-08
-1.96018e-08
2.54178e-08
-2.53306e-08
2.9705e-08
-3.17014e-08
3.38166e-08
-3.86754e-08
3.77045e-08
-4.62109e-08
4.13334e-08
-5.4264e-08
4.46795e-08
-6.2789e-08
4.77271e-08
-7.17391e-08
5.04682e-08
-8.10672e-08
5.28999e-08
-9.07259e-08
5.5024e-08
-1.00668e-07
5.68454e-08
-1.10848e-07
5.83719e-08
-1.21221e-07
5.96127e-08
-1.31742e-07
6.05784e-08
-1.4237e-07
6.12804e-08
-1.53063e-07
6.17304e-08
-1.63781e-07
6.19403e-08
-1.74488e-07
6.19217e-08
-1.85147e-07
6.16859e-08
-1.95723e-07
6.12437e-08
-2.06184e-07
6.06053e-08
-2.16496e-07
5.97802e-08
-2.26631e-07
5.87772e-08
-2.3656e-07
5.76044e-08
-2.46253e-07
5.62693e-08
-2.55684e-07
5.47784e-08
-2.64828e-07
5.31378e-08
-2.7366e-07
5.13531e-08
-2.82155e-07
4.94289e-08
-2.90291e-07
4.737e-08
-2.98044e-07
4.51802e-08
-3.05393e-07
4.28635e-08
-3.12318e-07
4.04233e-08
-3.18797e-07
3.78632e-08
-3.2481e-07
3.51865e-08
-3.3034e-07
3.23968e-08
-3.35366e-07
2.94978e-08
-3.39872e-07
2.64933e-08
-3.43841e-07
2.33875e-08
-3.47257e-07
2.01853e-08
-3.50104e-07
1.68916e-08
-3.52369e-07
1.35123e-08
-3.54038e-07
1.00537e-08
-3.55101e-07
6.52297e-09
-3.55547e-07
2.92786e-09
-3.55367e-07
-7.22951e-10
-3.54554e-07
-4.41997e-09
-3.53103e-07
-8.15284e-09
-3.51009e-07
-1.19103e-08
-3.48273e-07
-1.56802e-08
-3.44895e-07
-1.94495e-08
-3.40877e-07
-2.32044e-08
-3.36225e-07
-2.69299e-08
-3.30948e-07
-3.06106e-08
-3.25056e-07
-3.42301e-08
-3.18563e-07
-3.77715e-08
-3.11485e-07
-4.12171e-08
-3.03843e-07
-4.45488e-08
-2.95658e-07
-4.77481e-08
-2.86956e-07
-5.07961e-08
-2.77766e-07
-5.3674e-08
-2.6812e-07
-5.63626e-08
-2.58053e-07
-5.88433e-08
-2.47602e-07
-6.10973e-08
-2.36808e-07
-6.31067e-08
-2.25714e-07
-6.48538e-08
-2.14368e-07
-6.6322e-08
-2.02816e-07
-6.74956e-08
-1.91112e-07
-6.836e-08
-1.79306e-07
-6.8902e-08
-1.67455e-07
-6.91099e-08
-1.55614e-07
-6.89737e-08
-1.4384e-07
-6.84854e-08
-1.32192e-07
-6.76391e-08
-1.20727e-07
-6.64312e-08
-1.09504e-07
-6.48607e-08
-9.85807e-08
-6.29294e-08
-8.80133e-08
-6.06422e-08
-7.78566e-08
-5.80074e-08
-6.81633e-08
-5.50372e-08
-5.89832e-08
-5.1748e-08
-5.03625e-08
-4.81609e-08
-4.23432e-08
-4.43026e-08
-3.49626e-08
-4.02061e-08
-2.82524e-08
-3.59116e-08
-2.22382e-08
-3.14677e-08
-1.69389e-08
-2.69332e-08
-1.23662e-08
-2.23782e-08
-8.52483e-09
-1.78867e-08
-5.41207e-09
-1.35587e-08
-3.01884e-09
-9.51318e-09
-1.33076e-09
-5.89003e-09
-3.30185e-10
-2.85335e-09
-6.04914e-10
-5.0075e-10
1.65963e-09
-1.948e-09
5.78822e-09
-4.29911e-09
1.0458e-08
-7.5172e-09
1.54629e-08
-1.15672e-08
2.06429e-08
-1.64136e-08
2.58658e-08
-2.20197e-08
3.10239e-08
-2.83463e-08
3.60316e-08
-3.53518e-08
4.08222e-08
-4.29924e-08
4.5345e-08
-5.1222e-08
4.95631e-08
-5.9993e-08
5.34504e-08
-6.92564e-08
5.69906e-08
-7.89627e-08
6.01744e-08
-8.90618e-08
6.2999e-08
-9.95041e-08
6.54663e-08
-1.1024e-07
6.75816e-08
-1.21222e-07
6.93535e-08
-1.32402e-07
7.07924e-08
-1.43733e-07
7.19101e-08
-1.55172e-07
7.27194e-08
-1.66676e-07
7.32338e-08
-1.78202e-07
7.34664e-08
-1.89711e-07
7.34307e-08
-2.01165e-07
7.31396e-08
-2.12526e-07
7.26054e-08
-2.23761e-07
7.18399e-08
-2.34835e-07
7.0854e-08
-2.45715e-07
6.96579e-08
-2.56372e-07
6.82612e-08
-2.66775e-07
6.66723e-08
-2.76896e-07
6.48991e-08
-2.86707e-07
6.29487e-08
-2.96181e-07
6.08275e-08
-3.05294e-07
5.85414e-08
-3.14019e-07
5.60955e-08
-3.22334e-07
5.34949e-08
-3.30214e-07
5.0744e-08
-3.37638e-07
4.78472e-08
-3.44584e-07
4.48086e-08
-3.5103e-07
4.16323e-08
-3.56955e-07
3.83227e-08
-3.62342e-07
3.4884e-08
-3.67169e-07
3.13211e-08
-3.71421e-07
2.7639e-08
-3.75079e-07
2.38433e-08
-3.78127e-07
1.99402e-08
-3.80552e-07
1.59366e-08
-3.82338e-07
1.184e-08
-3.83474e-07
7.65884e-09
-3.83948e-07
3.40244e-09
-3.83752e-07
-9.18947e-10
-3.82878e-07
-5.29411e-09
-3.8132e-07
-9.71081e-09
-3.79075e-07
-1.41558e-08
-3.7614e-07
-1.86146e-08
-3.72518e-07
-2.30721e-08
-3.68211e-07
-2.75117e-08
-3.63224e-07
-3.19161e-08
-3.57568e-07
-3.62669e-08
-3.51253e-07
-4.05451e-08
-3.44294e-07
-4.47305e-08
-3.36709e-07
-4.88025e-08
-3.28518e-07
-5.27399e-08
-3.19745e-07
-5.65209e-08
-3.10418e-07
-6.01234e-08
-3.00566e-07
-6.35251e-08
-2.90225e-07
-6.67039e-08
-2.79431e-07
-6.96376e-08
-2.68224e-07
-7.23045e-08
-2.56647e-07
-7.46834e-08
-2.44747e-07
-7.67538e-08
-2.32573e-07
-7.84963e-08
-2.20176e-07
-7.98925e-08
-2.0761e-07
-8.09255e-08
-1.94932e-07
-8.15799e-08
-1.822e-07
-8.18422e-08
-1.69473e-07
-8.17009e-08
-1.56811e-07
-8.11469e-08
-1.44277e-07
-8.01735e-08
-1.31931e-07
-7.87768e-08
-1.19836e-07
-7.69558e-08
-1.08052e-07
-7.47132e-08
-9.66396e-08
-7.20549e-08
-8.5656e-08
-6.89911e-08
-7.51571e-08
-6.55361e-08
-6.51958e-08
-6.17093e-08
-5.58212e-08
-5.75354e-08
-4.70784e-08
-5.30454e-08
-3.90077e-08
-4.82768e-08
-3.16441e-08
-4.32752e-08
-2.50165e-08
-3.80953e-08
-1.91479e-08
-3.28017e-08
-1.40548e-08
-2.74713e-08
-9.74734e-09
-2.21942e-08
-6.22958e-09
-1.70765e-08
-3.50069e-09
-1.22421e-08
-1.55621e-09
-7.83451e-09
-3.90414e-10
-4.01915e-09
-9.95332e-10
-5.65818e-10
2.22544e-09
-2.19197e-09
7.41437e-09
-4.81997e-09
1.3086e-08
-8.39848e-09
1.90414e-08
-1.28797e-08
2.51241e-08
-1.82173e-08
3.12034e-08
-2.43651e-08
3.71717e-08
-3.12762e-08
4.29427e-08
-3.89025e-08
4.84485e-08
-4.71946e-08
5.36371e-08
-5.61019e-08
5.84704e-08
-6.55727e-08
6.29213e-08
-7.55549e-08
6.69727e-08
-8.59956e-08
7.06151e-08
-9.68423e-08
7.38457e-08
-1.08043e-07
7.66667e-08
-1.19545e-07
7.90841e-08
-1.31299e-07
8.11075e-08
-1.43255e-07
8.27484e-08
-1.55365e-07
8.40199e-08
-1.67582e-07
8.49366e-08
-1.79862e-07
8.55131e-08
-1.9216e-07
8.57645e-08
-2.04435e-07
8.57059e-08
-2.16647e-07
8.53517e-08
-2.28757e-07
8.47159e-08
-2.40729e-07
8.38119e-08
-2.52528e-07
8.26522e-08
-2.64118e-07
8.12483e-08
-2.75468e-07
7.96111e-08
-2.86546e-07
7.77505e-08
-2.97322e-07
7.56753e-08
-3.07767e-07
7.33939e-08
-3.17853e-07
7.09136e-08
-3.27553e-07
6.82412e-08
-3.36841e-07
6.53829e-08
-3.4569e-07
6.23444e-08
-3.54077e-07
5.9131e-08
-3.61978e-07
5.57478e-08
-3.69369e-07
5.21997e-08
-3.76228e-07
4.84917e-08
-3.82534e-07
4.46286e-08
-3.88266e-07
4.06158e-08
-3.93403e-07
3.64588e-08
-3.97928e-07
3.21636e-08
-4.01822e-07
2.77368e-08
-4.05067e-07
2.31856e-08
-4.07648e-07
1.85181e-08
-4.09551e-07
1.37431e-08
-4.10763e-07
8.8704e-09
-4.11271e-07
3.91096e-09
-4.11067e-07
-1.12337e-09
-4.10142e-07
-6.21951e-09
-4.08489e-07
-1.13632e-08
-4.06106e-07
-1.65391e-08
-4.0299e-07
-2.17306e-08
-3.99142e-07
-2.69197e-08
-3.94566e-07