/*--------------------------------*- C++ -*----------------------------------*\
| =========                 |                                                 |
| \\      /  F ield         | OpenFOAM: The Open Source CFD Toolbox           |
|  \\    /   O peration     | Version:  2512                                  |
|   \\  /    A nd           | Website:  www.openfoam.com                      |
|    \\/     M anipulation  |                                                 |
\*---------------------------------------------------------------------------*/
FoamFile
{
    version     2.0;
    format      ascii;
    arch        "LSB;label=32;scalar=64";
    class       surfaceScalarField;
    location    "0.34";
    object      phi;
}
// * * * * * * * * * * * * * * * * * * * * * * * * * * * * * * * * * * * * * //

dimensions      [0 3 -1 0 0 0 0];

oriented        oriented;

internalField   nonuniform List<scalar> 
19800
(
6.91918e-11
-6.92046e-11
2.0486e-10
-1.3567e-10
3.30785e-10
-1.25913e-10
4.00545e-10
-6.97724e-11
3.91108e-10
9.43868e-12
2.92088e-10
9.90225e-11
1.00583e-10
1.91499e-10
-1.81914e-10
2.82498e-10
-5.51408e-10
3.69496e-10
-1.00246e-09
4.51054e-10
-1.52889e-09
5.26429e-10
-2.12416e-09
5.95274e-10
-2.78166e-09
6.57505e-10
-3.49488e-09
7.13218e-10
-4.25749e-09
7.62615e-10
-5.06343e-09
8.05937e-10
-5.9069e-09
8.43472e-10
-6.78244e-09
8.75533e-10
-7.68489e-09
9.02448e-10
-8.60941e-09
9.24513e-10
-9.55142e-09
9.42011e-10
-1.05066e-08
9.55222e-10
-1.14711e-08
9.64403e-10
-1.24408e-08
9.69786e-10
-1.34124e-08
9.71563e-10
-1.43823e-08
9.69914e-10
-1.53473e-08
9.64992e-10
-1.63042e-08
9.56922e-10
-1.725e-08
9.45811e-10
-1.81818e-08
9.31748e-10
-1.90966e-08
9.14802e-10
-1.99916e-08
8.95014e-10
-2.0864e-08
8.72413e-10
-2.1711e-08
8.47024e-10
-2.25299e-08
8.18864e-10
-2.33179e-08
7.87943e-10
-2.40721e-08
7.54264e-10
-2.47899e-08
7.17824e-10
-2.54686e-08
6.78626e-10
-2.61053e-08
6.36684e-10
-2.66973e-08
5.92015e-10
-2.72419e-08
5.44655e-10
-2.77366e-08
4.94643e-10
-2.81786e-08
4.4204e-10
-2.85655e-08
3.86921e-10
-2.88949e-08
3.29379e-10
-2.91645e-08
2.69536e-10
-2.9372e-08
2.07539e-10
-2.95155e-08
1.43554e-10
-2.95933e-08
7.77796e-11
-2.96038e-08
1.04368e-11
-2.95455e-08
-5.82282e-11
-2.94176e-08
-1.27936e-10
-2.92192e-08
-1.98386e-10
-2.895e-08
-2.69251e-10
-2.86098e-08
-3.40173e-10
-2.8199e-08
-4.10773e-10
-2.77184e-08
-4.80657e-10
-2.71689e-08
-5.49407e-10
-2.65524e-08
-6.1659e-10
-2.58706e-08
-6.81766e-10
-2.51261e-08
-7.44483e-10
-2.43218e-08
-8.04285e-10
-2.34611e-08
-8.60725e-10
-2.25478e-08
-9.13354e-10
-2.1586e-08
-9.61731e-10
-2.05806e-08
-1.00544e-09
-1.95365e-08
-1.04406e-09
-1.84593e-08
-1.07724e-09
-1.73547e-08
-1.10461e-09
-1.62288e-08
-1.12586e-09
-1.50881e-08
-1.14074e-09
-1.39391e-08
-1.14899e-09
-1.27887e-08
-1.15044e-09
-1.16437e-08
-1.14495e-09
-1.05113e-08
-1.13245e-09
-9.39836e-09
-1.11291e-09
-8.31201e-09
-1.08635e-09
-7.25915e-09
-1.05286e-09
-6.24656e-09
-1.01259e-09
-5.28083e-09
-9.65726e-10
-4.36828e-09
-9.12544e-10
-3.51491e-09
-8.53364e-10
-2.72635e-09
-7.88565e-10
-2.00776e-09
-7.18591e-10
-1.3638e-09
-6.43956e-10
-7.98542e-10
-5.65257e-10
-3.15371e-10
-4.83174e-10
8.31228e-11
-3.98497e-10
3.95282e-10
-3.12158e-10
6.2057e-10
-2.25284e-10
7.59859e-10
-1.39289e-10
8.15847e-10
-5.59892e-11
7.9368e-10
2.21724e-11
7.01944e-10
9.17457e-11
5.54194e-10
1.47755e-10
3.71239e-10
1.82949e-10
1.8479e-10
1.86441e-10
4.26947e-11
1.42085e-10
4.26797e-11
1.38209e-10
-2.07418e-10
3.39933e-10
-3.37397e-10
4.79535e-10
-2.65507e-10
4.76077e-10
-6.63083e-11
2.78663e-10
2.06847e-10
-1.4033e-10
5.18021e-10
-7.92419e-10
8.43584e-10
-1.67826e-09
1.16833e-09
-2.79139e-09
1.48262e-09
-4.12081e-09
1.78047e-09
-5.65266e-09
2.05828e-09
-7.37147e-09
2.31408e-09
-9.26094e-09
2.54697e-09
-1.13045e-08
2.75678e-09
-1.34857e-08
2.94383e-09
-1.57885e-08
3.10872e-09
-1.81973e-08
3.25229e-09
-2.06972e-08
3.37548e-09
-2.32741e-08
3.4793e-09
-2.59143e-08
3.56476e-09
-2.86051e-08
3.63283e-09
-3.13344e-08
3.68445e-09
-3.40905e-08
3.72052e-09
-3.68626e-08
3.74185e-09
-3.96402e-08
3.74916e-09
-4.24133e-08
3.74308e-09
-4.51725e-08
3.72418e-09
-4.79086e-08
3.69294e-09
-5.06125e-08
3.64976e-09
-5.32757e-08
3.59497e-09
-5.58897e-08
3.52882e-09
-5.84463e-08
3.45153e-09
-6.09371e-08
3.36322e-09
-6.33541e-08
3.26403e-09
-6.56892e-08
3.15403e-09
-6.79345e-08
3.03327e-09
-7.00821e-08
2.90181e-09
-7.21239e-08
2.75969e-09
-7.40523e-08
2.60696e-09
-7.58593e-08
2.44371e-09
-7.75374e-08
2.27005e-09
-7.90788e-08
2.08612e-09
-8.04763e-08
1.89213e-09
-8.17226e-08
1.68833e-09
-8.28107e-08
1.47506e-09
-8.37341e-08
1.2527e-09
-8.44863e-08
1.02176e-09
-8.50616e-08
7.8281e-10
-8.54545e-08
5.36511e-10
-8.56604e-08
2.83626e-10
-8.5675e-08
2.50241e-11
-8.54948e-08
-2.38339e-10
-8.51174e-08
-5.05405e-10
-8.45408e-08
-7.75009e-10
-8.37641e-08
-1.0459e-09
-8.27876e-08
-1.31673e-09
-8.16123e-08
-1.58607e-09
-8.02405e-08
-1.85243e-09
-7.86757e-08
-2.11425e-09
-7.69224e-08
-2.3699e-09
-7.49864e-08
-2.61772e-09
-7.28749e-08
-2.85604e-09
-7.0596e-08
-3.08316e-09
-6.81593e-08
-3.29738e-09
-6.55756e-08
-3.49705e-09
-6.28568e-08
-3.68054e-09
-6.0016e-08
-3.84628e-09
-5.70673e-08
-3.99279e-09
-5.40258e-08
-4.11866e-09
-5.09078e-08
-4.22262e-09
-4.77302e-08
-4.3035e-09
-4.45106e-08
-4.36032e-09
-4.12674e-08
-4.39222e-09
-3.80193e-08
-4.39853e-09
-3.47855e-08
-4.37877e-09
-3.15853e-08
-4.33266e-09
-2.84381e-08
-4.26012e-09
-2.53631e-08
-4.16128e-09
-2.23795e-08
-4.03649e-09
-1.95058e-08
-3.88631e-09
-1.67599e-08
-3.71155e-09
-1.41593e-08
-3.51323e-09
-1.172e-08
-3.29262e-09
-9.45734e-09
-3.05122e-09
-7.38511e-09
-2.79081e-09
-5.51565e-09
-2.51343e-09
-3.85948e-09
-2.22143e-09
-2.42511e-09
-1.91755e-09
-1.21867e-09
-1.60494e-09
-2.43477e-10
-1.28735e-09
5.00486e-10
-9.69251e-10
1.01733e-09
-6.56135e-10
1.31625e-09
-3.54903e-10
1.41291e-09
-7.44716e-11
1.33128e-09
1.73382e-10
1.10613e-09
3.7289e-10
7.86131e-10
5.0295e-10
4.3684e-10
5.35753e-10
1.41593e-10
4.37349e-10
1.84261e-10
1.28679e-10
-3.36084e-10
2.71166e-10
-4.79884e-10
2.81086e-10
-2.75422e-10
6.28595e-11
1.5192e-10
-4.46444e-10
7.16155e-10
-1.28394e-09
1.35551e-09
-2.46702e-09
2.02667e-09
-3.99882e-09
2.70014e-09
-5.87234e-09
3.35613e-09
-8.07354e-09
3.98168e-09
-1.05838e-08
4.56851e-09
-1.33813e-08
5.11166e-09
-1.64429e-08
5.6085e-09
-1.97441e-08
6.058e-09
-2.32605e-08
6.46027e-09
-2.6968e-08
6.81616e-09
-3.08427e-08
7.12702e-09
-3.48618e-08
7.39456e-09
-3.90031e-08
7.62065e-09
-4.32456e-08
7.8072e-09
-4.75689e-08
7.95616e-09
-5.19539e-08
8.06939e-09
-5.6382e-08
8.14869e-09
-6.08359e-08
8.19569e-09
-6.52986e-08
8.21187e-09
-6.97541e-08
8.19859e-09
-7.41869e-08
8.15701e-09
-7.85821e-08
8.08813e-09
-8.29252e-08
7.99283e-09
-8.7202e-08
7.87182e-09
-9.13989e-08
7.72567e-09
-9.55022e-08
7.55484e-09
-9.94987e-08
7.35969e-09
-1.03375e-07
7.1405e-09
-1.07119e-07
6.89748e-09
-1.10716e-07
6.63082e-09
-1.14155e-07
6.34065e-09
-1.17422e-07
6.02714e-09
-1.20506e-07
5.69046e-09
-1.23393e-07
5.33084e-09
-1.26072e-07
4.94858e-09
-1.2853e-07
4.54406e-09
-1.30755e-07
4.11778e-09
-1.32737e-07
3.67035e-09
-1.34465e-07
3.20253e-09
-1.35927e-07
2.71524e-09
-1.37115e-07
2.2096e-09
-1.38019e-07
1.68688e-09
-1.38631e-07
1.14857e-09
-1.38944e-07
5.96351e-10
-1.38951e-07
3.21248e-11
-1.38647e-07
-5.42005e-10
-1.38029e-07
-1.12373e-09
-1.37093e-07
-1.71053e-09
-1.3584e-07
-2.29968e-09
-1.34268e-07
-2.88829e-09
-1.32381e-07
-3.47328e-09
-1.30182e-07
-4.05142e-09
-1.27677e-07
-4.61936e-09
-1.24873e-07
-5.17362e-09
-1.2178e-07
-5.71067e-09
-1.18409e-07
-6.22689e-09
-1.14774e-07
-6.71867e-09
-1.10889e-07
-7.18241e-09
-1.06771e-07
-7.61456e-09
-1.0244e-07
-8.01166e-09
-9.7916e-08
-8.37038e-09
-9.32213e-08
-8.68755e-09
-8.83797e-08
-8.96022e-09
-8.34166e-08
-9.18567e-09
-7.83587e-08
-9.36146e-09
-7.32335e-08
-9.48548e-09
-6.80698e-08
-9.55593e-09
-6.28969e-08
-9.57142e-09
-5.77447e-08
-9.53095e-09
-5.26435e-08
-9.43394e-09
-4.76234e-08
-9.28025e-09
-4.27144e-08
-9.07019e-09
-3.79464e-08
-8.80457e-09
-3.3348e-08
-8.48466e-09
-2.89473e-08
-8.11224e-09
-2.4771e-08
-7.68957e-09
-2.08441e-08
-7.21945e-09
-1.71901e-08
-6.70524e-09
-1.38301e-08
-6.15085e-09
-1.07827e-08
-5.56081e-09
-8.06378e-09
-4.94038e-09
-5.68573e-09
-4.2956e-09
-3.65719e-09
-3.63348e-09
-1.98231e-09
-2.96223e-09
-6.59941e-10
-2.29162e-09
3.1733e-10
-1.6334e-09
9.64483e-10
-1.00205e-09
1.30567e-09
-4.15654e-10
1.37621e-09
1.02831e-10
1.225e-09
5.24099e-10
9.17087e-10
8.10848e-10
5.36078e-10
9.16745e-10
1.8579e-10
7.87639e-10
3.70049e-10
7.31361e-11
-4.09227e-10
7.30654e-11
-4.79806e-10
-1.44388e-10
-5.79702e-11
-6.76825e-10
6.84345e-10
-1.58983e-09
1.62917e-09
-2.92338e-09
2.68905e-09
-4.69713e-09
3.80041e-09
-6.91513e-09
4.91814e-09
-9.56982e-09
6.01082e-09
-1.26451e-08
7.05696e-09
-1.61189e-08
8.04231e-09
-1.99651e-08
8.95783e-09
-2.41549e-08
9.79831e-09
-2.86581e-08
1.05613e-08
-3.3444e-08
1.12461e-08
-3.84815e-08
1.18537e-08
-4.37403e-08
1.23858e-08
-4.91905e-08
1.28448e-08
-5.48033e-08
1.32335e-08
-6.05509e-08
1.35548e-08
-6.64064e-08
1.38117e-08
-7.23442e-08
1.40072e-08
-7.83398e-08
1.41442e-08
-8.43694e-08
1.42253e-08
-9.04104e-08
1.42529e-08
-9.64411e-08
1.42293e-08
-1.0244e-07
1.41563e-08
-1.08388e-07
1.40357e-08
-1.14264e-07
1.38689e-08
-1.20049e-07
1.36572e-08
-1.25725e-07
1.34015e-08
-1.31273e-07
1.31026e-08
-1.36675e-07
1.27613e-08
-1.41912e-07
1.23781e-08
-1.46968e-07
1.19533e-08
-1.51825e-07
1.14874e-08
-1.56465e-07
1.09806e-08
-1.60871e-07
1.04334e-08
-1.65026e-07
9.84604e-09
-1.68915e-07
9.21909e-09
-1.72519e-07
8.55313e-09
-1.75824e-07
7.84888e-09
-1.78813e-07
7.10728e-09
-1.81473e-07
6.32947e-09
-1.83787e-07
5.51684e-09
-1.85743e-07
4.67105e-09
-1.87327e-07
3.79406e-09
-1.88528e-07
2.88814e-09
-1.89336e-07
1.95589e-09
-1.8974e-07
1.00027e-09
-1.89732e-07
2.45584e-11
-1.89306e-07
-9.67595e-10
-1.88458e-07
-1.97219e-09
-1.87184e-07
-2.98489e-09
-1.85482e-07
-4.00104e-09
-1.83355e-07
-5.01565e-09
-1.80805e-07
-6.02347e-09
-1.77837e-07
-7.019e-09
-1.7446e-07
-7.99651e-09
-1.70684e-07
-8.95007e-09
-1.66521e-07
-9.87367e-09
-1.61986e-07
-1.07612e-08
-1.57098e-07
-1.16065e-08
-1.51877e-07
-1.24035e-08
-1.46346e-07
-1.31461e-08
-1.40529e-07
-1.38286e-08
-1.34454e-07
-1.44452e-08
-1.28151e-07
-1.49907e-08
-1.21651e-07
-1.546e-08
-1.14988e-07
-1.58486e-08
-1.08197e-07
-1.61523e-08
-1.01315e-07
-1.63677e-08
-9.43795e-08
-1.64916e-08
-8.74291e-08
-1.65218e-08
-8.05034e-08
-1.64566e-08
-7.36423e-08
-1.62951e-08
-6.68855e-08
-1.60371e-08
-6.02726e-08
-1.56831e-08
-5.38425e-08
-1.52347e-08
-4.76332e-08
-1.4694e-08
-4.16813e-08
-1.40641e-08
-3.60217e-08
-1.33491e-08
-3.06874e-08
-1.25538e-08
-2.57085e-08
-1.16841e-08
-2.11126e-08
-1.07468e-08
-1.69237e-08
-9.74974e-09
-1.31619e-08
-8.70219e-09
-9.8429e-09
-7.61461e-09
-6.97726e-09
-6.49911e-09
-4.56966e-09
-5.36983e-09
-2.61795e-09
-4.24333e-09
-1.11206e-09
-3.1393e-09
-3.26529e-11
-2.08146e-09
6.50425e-10
-1.09873e-09
9.79971e-10
-2.26711e-10
1.01351e-09
4.90563e-10
8.25559e-10
9.98799e-10
5.10025e-10
1.23226e-09
1.83774e-10
1.11389e-09
5.53827e-10
-6.27416e-12
-4.02951e-10
-2.01747e-10
-2.84339e-10
-7.13487e-10
4.53778e-10
-1.63107e-09
1.60193e-09
-3.01568e-09
3.01377e-09
-4.90506e-09
4.57843e-09
-7.31768e-09
6.21303e-09
-1.02566e-08
7.85704e-09
-1.37127e-08
9.46699e-09
-1.7668e-08
1.10122e-08
-2.20975e-08
1.24718e-08
-2.69714e-08
1.38317e-08
-3.22568e-08
1.50837e-08
-3.79188e-08
1.62232e-08
-4.39213e-08
1.72486e-08
-5.02281e-08
1.81604e-08
-5.68029e-08
1.89606e-08
-6.36103e-08
1.96522e-08
-7.06155e-08
2.02387e-08
-7.77849e-08
2.07241e-08
-8.50859e-08
2.11127e-08
-9.24872e-08
2.14085e-08
-9.99585e-08
2.16155e-08
-1.07471e-07
2.17376e-08
-1.14996e-07
2.17781e-08
-1.22507e-07
2.17403e-08
-1.29978e-07
2.1627e-08
-1.37383e-07
2.14407e-08
-1.44697e-07
2.11836e-08
-1.51898e-07
2.08574e-08
-1.5896e-07
2.04638e-08
-1.65861e-07
2.00039e-08
-1.72579e-07
1.94788e-08
-1.7909e-07
1.88895e-08
-1.85373e-07
1.82365e-08
-1.91406e-07
1.75205e-08
-1.97168e-07
1.67422e-08
-2.02637e-07
1.59021e-08
-2.07792e-07
1.5001e-08
-2.12612e-07
1.40397e-08
-2.17078e-07
1.30192e-08
-2.2117e-07
1.19406e-08
-2.24868e-07
1.08056e-08
-2.28155e-07
9.616e-09
-2.31012e-07
8.37394e-09
-2.33423e-07
7.08207e-09
-2.35373e-07
5.74344e-09
-2.36846e-07
4.36157e-09
-2.37831e-07
2.94046e-09
-2.38315e-07
1.48465e-09
-2.38289e-07
-8.38314e-13
-2.37747e-07
-1.51046e-09
-2.36681e-07
-3.03813e-09
-2.35088e-07
-4.57727e-09
-2.32969e-07
-6.12085e-09
-2.30323e-07
-7.66134e-09
-2.27155e-07
-9.19084e-09
-2.23473e-07
-1.0701e-08
-2.19287e-07
-1.21833e-08
-2.14608e-07
-1.36289e-08
-2.09453e-07
-1.50286e-08
-2.03841e-07
-1.63734e-08
-1.97793e-07
-1.7654e-08
-1.91335e-07
-1.88614e-08
-1.84495e-07
-1.99865e-08
-1.77303e-07
-2.10206e-08
-1.69793e-07
-2.19553e-08
-1.62001e-07
-2.27826e-08
-1.53966e-07
-2.34952e-08
-1.45728e-07
-2.40861e-08
-1.37331e-07
-2.45493e-08
-1.2882e-07
-2.48796e-08
-1.20239e-07
-2.50724e-08
-1.11636e-07
-2.51243e-08
-1.0306e-07
-2.50329e-08
-9.45582e-08
-2.47969e-08
-8.61793e-08
-2.4416e-08
-7.79712e-08
-2.38912e-08
-6.99812e-08
-2.32247e-08
-6.22552e-08
-2.242e-08
-5.48376e-08
-2.14818e-08
-4.77704e-08
-2.04163e-08
-4.10933e-08
-1.92309e-08
-3.48428e-08
-1.79346e-08
-2.90517e-08
-1.65378e-08
-2.37488e-08
-1.50527e-08
-1.89579e-08
-1.3493e-08
-1.46976e-08
-1.18749e-08
-1.09802e-08
-1.02165e-08
-7.81088e-09
-8.53914e-09
-5.187e-09
-6.86721e-09
-3.09673e-09
-5.22956e-09
-1.51794e-09
-3.66024e-09
-4.16737e-10
-2.19994e-09
2.54128e-10
-8.97582e-10
5.56953e-10
1.87742e-10
5.71111e-10
9.84641e-10
3.95519e-10
1.40785e-09
1.52645e-10
1.35677e-09
7.06474e-10
-9.69475e-11
-3.06001e-10
-5.19178e-10
1.37892e-10
-1.36846e-09
1.30305e-09
-2.71954e-09
2.953e-09
-4.62403e-09
4.91827e-09
-7.11343e-09
7.06783e-09
-1.0202e-08
9.30161e-09
-1.38897e-08
1.15448e-08
-1.8165e-08
1.37422e-08
-2.30069e-08
1.58542e-08
-2.83877e-08
1.78526e-08
-3.42745e-08
1.97186e-08
-4.06308e-08
2.144e-08
-4.74175e-08
2.301e-08
-5.45944e-08
2.44255e-08
-6.21206e-08
2.56866e-08
-6.99551e-08
2.67951e-08
-7.80575e-08
2.77546e-08
-8.6388e-08
2.85692e-08
-9.4908e-08
2.92441e-08
-1.0358e-07
2.97845e-08
-1.12367e-07
3.01957e-08
-1.21234e-07
3.04828e-08
-1.30148e-07
3.06509e-08
-1.39074e-07
3.07046e-08
-1.47982e-07
3.06481e-08
-1.5684e-07
3.04852e-08
-1.65619e-07
3.02193e-08
-1.74289e-07
2.98533e-08
-1.82821e-07
2.93898e-08
-1.91188e-07
2.88308e-08
-1.99362e-07
2.81782e-08
-2.07317e-07
2.74334e-08
-2.15025e-07
2.65978e-08
-2.22461e-07
2.56724e-08
-2.29599e-07
2.46582e-08
-2.36413e-07
2.35562e-08
-2.42878e-07
2.23673e-08
-2.4897e-07
2.10926e-08
-2.54663e-07
1.97335e-08
-2.59936e-07
1.82915e-08
-2.64764e-07
1.67685e-08
-2.69125e-07
1.51666e-08
-2.72997e-07
1.34886e-08
-2.76361e-07
1.17377e-08
-2.79197e-07
9.91769e-09
-2.81486e-07
8.0329e-09
-2.83213e-07
6.08836e-09
-2.84362e-07
4.08976e-09
-2.84921e-07
2.04348e-09
-2.84878e-07
-4.33798e-11
-2.84226e-07
-2.16302e-09
-2.82957e-07
-4.30695e-09
-2.81068e-07
-6.46598e-09
-2.78559e-07
-8.63025e-09
-2.75431e-07
-1.07893e-08
-2.7169e-07
-1.29322e-08
-2.67343e-07
-1.50473e-08
-2.62404e-07
-1.71227e-08
-2.56887e-07
-1.91462e-08
-2.5081e-07
-2.11052e-08
-2.44197e-07
-2.2987e-08
-2.37072e-07
-2.4779e-08
-2.29464e-07
-2.64685e-08
-2.21408e-07
-2.80431e-08
-2.12937e-07
-2.94909e-08
-2.04093e-07
-3.08001e-08
-1.94915e-07
-3.19599e-08
-1.8545e-07
-3.296e-08
-1.75746e-07
-3.37909e-08
-1.65851e-07
-3.44444e-08
-1.55817e-07
-3.49131e-08
-1.45698e-07
-3.5191e-08
-1.35549e-07
-3.52733e-08
-1.25426e-07
-3.51569e-08
-1.15383e-07
-3.48397e-08
-1.05477e-07
-3.43218e-08
-9.57636e-08
-3.36044e-08
-8.62976e-08
-3.26907e-08
-7.71319e-08
-3.15857e-08
-6.83176e-08
-3.02961e-08
-5.99034e-08
-2.88305e-08
-5.19349e-08
-2.71993e-08
-4.44542e-08
-2.54153e-08
-3.7499e-08
-2.34931e-08
-3.11022e-08
-2.14495e-08
-2.52911e-08
-1.93041e-08
-2.00868e-08
-1.70791e-08
-1.55036e-08
-1.47998e-08
-1.15474e-08
-1.24953e-08
-8.21573e-09
-1.01989e-08
-5.49598e-09
-7.94931e-09
-3.36463e-09
-5.7916e-09
-1.78594e-09
-3.77864e-09
-7.10647e-10
-1.97288e-09
-7.45592e-11
-4.48346e-10
2.0315e-10
7.0693e-10
2.22065e-10
1.38893e-09
1.0384e-10
1.475e-09
8.10313e-10
-1.92291e-10
-1.13712e-10
-8.57826e-10
8.03428e-10
-2.07035e-09
2.51558e-09
-3.88577e-09
4.76842e-09
-6.34254e-09
7.37503e-09
-9.46283e-09
1.01881e-08
-1.32542e-08
1.3093e-08
-1.77117e-08
1.60022e-08
-2.28196e-08
1.88502e-08
-2.85538e-08
2.15883e-08
-3.48832e-08
2.4182e-08
-4.17717e-08
2.66071e-08
-4.91794e-08
2.88476e-08
-5.70636e-08
3.08942e-08
-6.53805e-08
3.27424e-08
-7.40851e-08
3.43912e-08
-8.31323e-08
3.58424e-08
-9.24775e-08
3.70997e-08
-1.02077e-07
3.81683e-08
-1.11886e-07
3.90539e-08
-1.21865e-07
3.97629e-08
-1.31971e-07
4.03018e-08
-1.42165e-07
4.06769e-08
-1.52408e-07
4.08945e-08
-1.62664e-07
4.09603e-08
-1.72896e-07
4.08797e-08
-1.83068e-07
4.06575e-08
-1.93147e-07
4.0298e-08
-2.03098e-07
3.98049e-08
-2.1289e-07
3.91817e-08
-2.2249e-07
3.84309e-08
-2.31867e-07
3.75551e-08
-2.4099e-07
3.65562e-08
-2.49828e-07
3.54361e-08
-2.58352e-07
3.41961e-08
-2.66531e-07
3.28379e-08
-2.74338e-07
3.13626e-08
-2.81742e-07
2.97719e-08
-2.88717e-07
2.80672e-08
-2.95234e-07
2.62505e-08
-3.01266e-07
2.43239e-08
-3.06788e-07
2.22901e-08
-3.11774e-07
2.01522e-08
-3.16199e-07
1.79138e-08
-3.20041e-07
1.55795e-08
-3.23277e-07
1.31543e-08
-3.25888e-07
1.0644e-08
-3.27856e-07
8.05557e-09
-3.29162e-07
5.39647e-09
-3.29794e-07
2.67525e-09
-3.29739e-07
-9.86397e-11
-3.28987e-07
-2.91486e-09
-3.27532e-07
-5.76212e-09
-3.25369e-07
-8.6283e-09
-3.22499e-07
-1.15004e-08
-3.18924e-07
-1.43646e-08
-3.1465e-07
-1.72065e-08
-3.09686e-07
-2.00109e-08
-3.04047e-07
-2.2762e-08
-2.97749e-07
-2.54439e-08
-2.90814e-07
-2.804e-08
-2.83268e-07
-3.05337e-08
-2.75138e-07
-3.29085e-08
-2.66459e-07
-3.51478e-08
-2.57267e-07
-3.72354e-08
-2.47602e-07
-3.91556e-08
-2.37509e-07
-4.08931e-08
-2.27035e-07
-4.24337e-08
-2.16231e-07
-4.3764e-08
-2.0515e-07
-4.48718e-08
-1.93848e-07
-4.5746e-08
-1.82384e-07
-4.63773e-08
-1.70818e-07
-4.67577e-08
-1.5921e-07
-4.68811e-08
-1.47623e-07
-4.67432e-08
-1.36121e-07
-4.63418e-08
-1.24767e-07
-4.56767e-08
-1.13621e-07
-4.47497e-08
-1.02747e-07
-4.35652e-08
-9.22025e-08
-4.21298e-08
-8.20463e-08
-4.04523e-08
-7.23325e-08
-3.85443e-08
-6.31123e-08
-3.64196e-08
-5.44326e-08
-3.4095e-08
-4.63358e-08
-3.15899e-08
-3.88586e-08
-2.89267e-08
-3.20319e-08
-2.61309e-08
-2.58792e-08
-2.32318e-08
-2.04168e-08
-2.02623e-08
-1.5652e-08
-1.726e-08
-1.15831e-08
-1.42679e-08
-8.19756e-09
-1.13348e-08
-5.47188e-09
-8.51728e-09
-3.37002e-09
-5.88049e-09
-1.84264e-09
-3.50026e-09
-8.2588e-10
-1.46511e-09
-2.40169e-10
1.21218e-10
1.13188e-11
1.13745e-09
4.48013e-11
1.44151e-09
8.55115e-10
-2.88467e-10
1.74752e-10
-1.20448e-09
1.71943e-09
-2.79362e-09
4.10472e-09
-5.09113e-09
7.06593e-09
-8.12005e-09
1.0404e-08
-1.1891e-08
1.39591e-08
-1.64031e-08
1.7605e-08
-2.16445e-08
2.12436e-08
-2.75945e-08
2.48001e-08
-3.42245e-08
2.82184e-08
-4.14998e-08
3.14573e-08
-4.93806e-08
3.44879e-08
-5.78237e-08
3.72907e-08
-6.67832e-08
3.98538e-08
-7.62116e-08
4.21708e-08
-8.60604e-08
4.424e-08
-9.6281e-08
4.6063e-08
-1.06825e-07
4.76436e-08
-1.17644e-07
4.89876e-08
-1.28692e-07
5.01015e-08
-1.39922e-07
5.09928e-08
-1.51289e-07
5.16691e-08
-1.6275e-07
5.21379e-08
-1.74262e-07
5.24067e-08
-1.85784e-07
5.24824e-08
-1.97276e-07
5.23714e-08
-2.08698e-07
5.20797e-08
-2.20013e-07
5.16125e-08
-2.31182e-07
5.09744e-08
-2.4217e-07
5.01697e-08
-2.52941e-07
4.92016e-08
-2.63459e-07
4.80734e-08
-2.7369e-07
4.67875e-08
-2.83601e-07
4.53463e-08
-2.93156e-07
4.37519e-08
-3.02325e-07
4.2006e-08
-3.11073e-07
4.01107e-08
-3.19369e-07
3.80679e-08
-3.27181e-07
3.58798e-08
-3.3448e-07
3.35489e-08
-3.41234e-07
3.10782e-08
-3.47415e-07
2.84713e-08
-3.52995e-07
2.57321e-08
-3.57947e-07
2.28657e-08
-3.62245e-07
1.98777e-08
-3.65865e-07
1.67748e-08
-3.68786e-07
1.35646e-08
-3.70986e-07
1.02558e-08
-3.72448e-07
6.85826e-09
-3.73156e-07
3.38276e-09
-3.73096e-07
-1.58611e-10
-3.72258e-07
-3.75267e-09
-3.70635e-07
-7.38508e-09
-3.68223e-07
-1.10404e-08
-3.65021e-07
-1.47023e-08
-3.61032e-07
-1.83531e-08
-3.56264e-07
-2.19746e-08
-3.50728e-07
-2.55477e-08
-3.44437e-07
-2.90525e-08
-3.37412e-07
-3.24687e-08
-3.29677e-07
-3.57756e-08
-3.21258e-07
-3.89523e-08
-3.12189e-07
-4.19778e-08
-3.02505e-07
-4.48314e-08
-2.92248e-07
-4.74927e-08
-2.81462e-07
-4.99417e-08
-2.70195e-07
-5.21596e-08
-2.58501e-07
-5.41282e-08
-2.46434e-07
-5.58307e-08
-2.34054e-07
-5.72518e-08
-2.21422e-07
-5.83777e-08
-2.08603e-07
-5.91965e-08
-1.95662e-07
-5.96983e-08
-1.82668e-07
-5.98755e-08
-1.69688e-07
-5.97227e-08
-1.56793e-07
-5.9237e-08
-1.44052e-07
-5.84184e-08
-1.31532e-07
-5.72693e-08
-1.19302e-07
-5.57953e-08
-1.07427e-07
-5.40046e-08
-9.59708e-08
-5.19087e-08
-8.4993e-08
-4.95221e-08
-7.45499e-08
-4.68627e-08
-6.46934e-08
-4.39515e-08
-5.54701e-08
-4.08132e-08
-4.69206e-08
-3.74761e-08
-3.9079e-08
-3.39725e-08
-3.19718e-08
-3.0339e-08
-2.56174e-08
-2.66167e-08
-2.0025e-08
-2.28524e-08
-1.51943e-08
-1.90986e-08
-1.1114e-08
-1.54152e-08
-7.76138e-09
-1.18699e-08
-5.10166e-09
-8.54021e-09
-3.08686e-09
-5.51506e-09
-1.65528e-09
-2.8967e-09
-7.30639e-10
-8.03415e-10
-2.21351e-10
6.28164e-10
-1.95933e-11
1.23975e-09
8.35526e-10
-3.8345e-10
5.58204e-10
-1.55113e-09
2.88711e-09
-3.52177e-09
6.07537e-09
-6.30953e-09
9.85369e-09
-9.92087e-09
1.40153e-08
-1.43535e-08
1.83918e-08
-1.95964e-08
2.28479e-08
-2.563e-08
2.72772e-08
-3.2427e-08
3.15972e-08
-3.99539e-08
3.57452e-08
-4.81714e-08
3.96748e-08
-5.7036e-08
4.33525e-08
-6.65009e-08
4.67556e-08
-7.65167e-08
4.98695e-08
-8.70326e-08
5.26867e-08
-9.79969e-08
5.52043e-08
-1.09358e-07
5.74237e-08
-1.21063e-07
5.93488e-08
-1.33061e-07
6.0986e-08
-1.45302e-07
6.23426e-08
-1.57737e-07
6.3427e-08
-1.70315e-07
6.4248e-08
-1.82992e-07
6.48142e-08
-1.95719e-07
6.51343e-08
-2.08453e-07
6.52164e-08
-2.2115e-07
6.50681e-08
-2.33767e-07
6.46963e-08
-2.46262e-07
6.41072e-08
-2.58594e-07
6.33066e-08
-2.70723e-07
6.22991e-08
-2.82611e-07
6.10892e-08
-2.94218e-07
5.96805e-08
-3.05506e-07
5.80762e-08
-3.16439e-07
5.62793e-08
-3.2698e-07
5.42922e-08
-3.37091e-07
5.21176e-08
-3.46738e-07
4.97578e-08
-3.55886e-07
4.72154e-08
-3.645e-07
4.44935e-08
-3.72546e-07
4.15951e-08
-3.79992e-07
3.85242e-08
-3.86806e-07
3.52852e-08
-3.92957e-07
3.18834e-08
-3.98416e-07
2.8325e-08
-4.03156e-07
2.46172e-08
-4.0715e-07
2.07684e-08
-4.10373e-07
1.67881e-08
-4.12804e-07
1.26871e-08
-4.14424e-07
8.47757e-09
-4.15214e-07
4.17298e-09
-4.15161e-07
-2.11759e-10
-4.14253e-07
-4.66036e-09
-4.12483e-07
-9.15519e-09
-4.09846e-07
-1.36773e-08
-4.06342e-07
-1.82063e-08
-4.01974e-07
-2.27209e-08
-3.9675e-07
-2.71986e-08
-3.90682e-07
-3.16159e-08
-3.83786e-07
-3.59486e-08
-3.76083e-07
-4.01717e-08
-3.67598e-07
-4.426e-08
-3.58363e-07
-4.81877e-08
-3.48411e-07
-5.19294e-08
-3.37783e-07
-5.54596e-08
-3.26523e-07
-5.87533e-08
-3.14678e-07
-6.17864e-08
-3.02302e-07
-6.45356e-08
-2.89451e-07
-6.69788e-08
-2.76187e-07
-6.90955e-08
-2.62572e-07
-7.08669e-08
-2.48673e-07
-7.22762e-08
-2.34561e-07
-7.33088e-08
-2.20306e-07
-7.39528e-08
-2.05983e-07
-7.41987e-08
-1.91666e-07
-7.40401e-08
-1.77429e-07
-7.34734e-08
-1.63349e-07
-7.24986e-08
-1.49499e-07
-7.11188e-08
-1.35954e-07
-6.93407e-08
-1.22784e-07
-6.71747e-08
-1.10058e-07
-6.46348e-08
-9.78408e-08
-6.17389e-08
-8.61946e-08
-5.85089e-08
-7.51753e-08
-5.49708e-08
-6.48338e-08
-5.11546e-08
-5.52148e-08
-4.70951e-08
-4.63557e-08
-4.28317e-08
-3.82861e-08
-3.84086e-08
-3.1027e-08
-3.38758e-08
-2.45901e-08
-2.92892e-08
-1.8977e-08
-2.47117e-08
-1.41784e-08
-2.02137e-08
-1.01737e-08
-1.58746e-08
-6.93008e-09
-1.17838e-08
-4.40229e-09
-8.04286e-09
-2.53211e-09
-4.76688e-09
-1.2481e-09
-2.08742e-09
-4.65463e-10
-1.54472e-10
-8.6246e-11
8.60545e-10
7.49285e-10
-4.76184e-10
1.03439e-09
-1.89304e-09
4.30396e-09
-4.24441e-09
8.42673e-09
-7.52376e-09
1.3133e-08
-1.17206e-08
1.82122e-08
-1.6819e-08
2.34902e-08
-2.27967e-08
2.88256e-08
-2.96254e-08
3.41058e-08
-3.72706e-08
3.92424e-08
-4.56927e-08
4.41674e-08
-5.48476e-08
4.88297e-08
-6.46874e-08
5.31923e-08
-7.51614e-08
5.72296e-08
-8.62168e-08
6.0925e-08
-9.77996e-08
6.42694e-08
-1.09855e-07
6.72595e-08
-1.22327e-07
6.98961e-08
-1.35162e-07
7.21835e-08
-1.48304e-07
7.41285e-08
-1.61701e-07
7.57392e-08
-1.75299e-07
7.70251e-08
-1.89047e-07
7.79959e-08
-2.02894e-07
7.86615e-08
-2.16792e-07
7.90317e-08
-2.30691e-07
7.91158e-08
-2.44545e-07
7.89224e-08
-2.58309e-07
7.84596e-08
-2.71936e-07
7.77346e-08
-2.85383e-07
7.67539e-08
-2.98607e-07
7.55233e-08
-3.11566e-07
7.40478e-08
-3.24217e-07
7.23318e-08
-3.3652e-07
7.03791e-08
-3.48434e-07
6.81934e-08
-3.5992e-07
6.57778e-08
-3.70938e-07
6.31353e-08
-3.81449e-07
6.02691e-08
-3.91416e-07
5.71825e-08
-4.00802e-07
5.3879e-08
-4.09569e-07
5.03628e-08
-4.17684e-07
4.66387e-08
-4.25111e-07
4.27122e-08
-4.31817e-07
3.85899e-08
-4.37772e-07
3.42794e-08
-4.42944e-07
2.97895e-08
-4.47306e-07
2.51303e-08
-4.50831e-07
2.03136e-08
-4.53497e-07
1.53524e-08
-4.5528e-07
1.02614e-08
-4.56164e-07
5.05692e-09
-4.56133e-07
-2.43086e-10
-4.55174e-07
-5.61902e-09
-4.5328e-07
-1.10497e-08
-4.50445e-07
-1.65122e-08
-4.46669e-07
-2.19824e-08
-4.41955e-07
-2.74345e-08
-4.36312e-07
-3.28416e-08
-4.29753e-07
-3.81756e-08
-4.22294e-07
-4.34075e-08
-4.13958e-07
-4.85074e-08
-4.04773e-07
-5.34452e-08
-3.9477e-07
-5.81902e-08
-3.83988e-07
-6.27117e-08
-3.72468e-07
-6.69795e-08
-3.60258e-07
-7.09637e-08
-3.47409e-07
-7.46353e-08
-3.33978e-07
-7.79666e-08
-3.20026e-07
-8.09312e-08
-3.05617e-07
-8.35045e-08
-2.90819e-07
-8.56641e-08
-2.75706e-07
-8.73899e-08
-2.6035e-07
-8.86645e-08
-2.44829e-07
-8.94735e-08
-2.29222e-07
-8.98056e-08
-2.1361e-07
-8.9653e-08
-1.98071e-07
-8.90117e-08
-1.82688e-07
-8.78814e-08
-1.67541e-07
-8.62659e-08
-1.52709e-07
-8.41734e-08
-1.38267e-07
-8.16161e-08
-1.24291e-07
-7.86109e-08
-1.10851e-07
-7.51793e-08
-9.80125e-08
-7.13474e-08
-8.5837e-08
-6.71463e-08
-7.43797e-08
-6.26119e-08
-6.36891e-08
-5.77857e-08
-5.38064e-08
-5.27143e-08
-4.47647e-08
-4.74503e-08
-3.65881e-08
-4.20525e-08
-2.92909e-08
-3.65863e-08
-2.28777e-08
-3.1125e-08
-1.73417e-08
-2.57497e-08
-1.26651e-08
-2.05512e-08
-8.81813e-09
-1.56308e-08
-5.75923e-09
-1.11018e-08
-3.43461e-09
-7.09149e-09
-1.77859e-09
-3.74344e-09
-7.14018e-10
-1.21904e-09
-1.53237e-10
2.99773e-10
5.96049e-10
-5.6615e-10
1.60054e-09
-2.22754e-09
5.96535e-09
-4.95518e-09
1.11544e-08
-8.72274e-09
1.69006e-08
-1.35029e-08
2.29924e-08
-1.92658e-08
2.9253e-08
-2.59775e-08
3.55373e-08
-3.35999e-08
4.17283e-08
-4.20909e-08
4.77334e-08
-5.14041e-08
5.34806e-08
-6.149e-08
5.89156e-08
-7.2296e-08
6.39983e-08
-8.37672e-08
6.87008e-08
-9.58472e-08
7.3005e-08
-1.08479e-07
7.69007e-08
-1.21603e-07
8.0384e-08
-1.35163e-07
8.34556e-08
-1.49099e-07
8.61201e-08
-1.63356e-07
8.83849e-08
-1.77875e-07
9.02589e-08
-1.92603e-07
9.17525e-08
-2.07483e-07
9.28765e-08
-2.22464e-07
9.36419e-08
-2.37492e-07
9.40598e-08
-2.52516e-07
9.41405e-08
-2.67488e-07
9.38938e-08
-2.82357e-07
9.33288e-08
-2.97076e-07
9.24539e-08
-3.11599e-07
9.12763e-08
-3.25878e-07
8.98027e-08
-3.39869e-07
8.80388e-08
-3.53527e-07
8.59899e-08
-3.66809e-07
8.36605e-08
-3.7967e-07
8.10548e-08
-3.92069e-07
7.81765e-08
-4.03963e-07
7.50293e-08
-4.15311e-07
7.16172e-08
-4.26072e-07
6.7944e-08
-4.36208e-07
6.40143e-08
-4.45678e-07
5.98329e-08
-4.54445e-07
5.54057e-08
-4.62472e-07
5.07394e-08
-4.69724e-07
4.5842e-08
-4.76167e-07
4.07225e-08
-4.81769e-07
3.53915e-08
-4.865e-07
2.98612e-08
-4.90332e-07
2.41454e-08
-4.93239e-07
1.82596e-08
-4.95199e-07
1.22212e-08
-4.96191e-07
6.04955e-09
-4.962e-07
-2.34166e-10
-4.95213e-07
-6.60682e-09
-4.93219e-07
-1.30434e-08
-4.90214e-07
-1.95171e-08
-4.86197e-07
-2.59993e-08
-4.81172e-07
-3.24599e-08
-4.75146e-07
-3.88671e-08
-4.68134e-07
-4.51879e-08
-4.60153e-07
-5.13883e-08
-4.51227e-07
-5.74332e-08
-4.41385e-07
-6.32872e-08
-4.30661e-07
-6.89143e-08
-4.19094e-07
-7.42786e-08
-4.06729e-07
-7.93444e-08
-3.93616e-07
-8.40767e-08
-3.7981e-07
-8.84416e-08
-3.6537e-07
-9.24063e-08
-3.50362e-07
-9.59398e-08
-3.34853e-07
-9.90135e-08
-3.18916e-07
-1.01601e-07
-3.02628e-07
-1.03678e-07
-2.86068e-07
-1.05225e-07
-2.69318e-07
-1.06224e-07
-2.52461e-07
-1.06662e-07
-2.35584e-07
-1.0653e-07
-2.18772e-07
-1.05824e-07
-2.02111e-07
-1.04542e-07
-1.85688e-07
-1.02689e-07
-1.69586e-07
-1.00275e-07
-1.53887e-07
-9.73146e-08
-1.38672e-07
-9.38265e-08
-1.24015e-07
-8.98363e-08
-1.09987e-07
-8.53748e-08
-9.66553e-08
-8.04782e-08
-8.40785e-08
-7.51887e-08
-7.23097e-08
-6.95545e-08
-6.13941e-08
-6.36299e-08
-5.13685e-08
-5.74759e-08
-4.22604e-08
-5.11605e-08
-3.40879e-08
-4.47589e-08
-2.68585e-08
-3.83544e-08
-2.05688e-08
-3.20394e-08
-1.52046e-08
-2.59155e-08
-1.07398e-08
-2.00956e-08
-7.13713e-09
-1.47044e-08
-4.34796e-09
-9.88066e-09
-2.31287e-09
-5.77854e-09
-9.62564e-10
-2.56934e-09
-2.19421e-10
-4.43367e-10
3.76627e-10
-6.53177e-10
2.25372e-09
-2.55327e-09
7.86544e-09
-5.65044e-09
1.42515e-08
-9.89967e-09
2.11498e-08
-1.52574e-08
2.83501e-08
-2.16795e-08
3.56751e-08
-2.91203e-08
4.29781e-08
-3.75318e-08
5.01398e-08
-4.68633e-08
5.70648e-08
-5.70614e-08
6.36788e-08
-6.80706e-08
6.99247e-08
-7.98331e-08
7.57608e-08
-9.22898e-08
8.11574e-08
-1.0538e-07
8.60955e-08
-1.19043e-07
9.0564e-08
-1.33218e-07
9.45588e-08
-1.47843e-07
9.80807e-08
-1.62858e-07
1.01135e-07
-1.78203e-07
1.03729e-07
-1.93817e-07
1.05874e-07
-2.09644e-07
1.07579e-07
-2.25626e-07
1.08858e-07
-2.41707e-07
1.09723e-07
-2.57833e-07
1.10185e-07
-2.73949e-07
1.10257e-07
-2.90003e-07
1.09948e-07
-3.05944e-07
1.0927e-07
-3.21721e-07
1.08231e-07
-3.37285e-07
1.0684e-07
-3.52587e-07
1.05104e-07
-3.67579e-07
1.03031e-07
-3.82213e-07
1.00625e-07
-3.96444e-07
9.78914e-08
-4.10226e-07
9.48361e-08
-4.23512e-07
9.1463e-08
-4.36259e-07
8.77766e-08
-4.48423e-07
8.37813e-08
-4.59961e-07
7.94819e-08
-4.70831e-07
7.48837e-08
-4.8099e-07
6.99925e-08
-4.904e-07
6.48153e-08
-4.99021e-07
5.93601e-08
-5.06815e-07
5.36361e-08
-5.13746e-07
4.7654e-08
-5.19781e-07
4.14263e-08
-5.24887e-07
3.49672e-08
-5.29034e-07
2.82928e-08
-5.32196e-07
2.14212e-08
-5.34348e-07
1.43727e-08
-5.35468e-07
7.16973e-09
-5.35539e-07
-1.63133e-10
-5.34547e-07
-7.59904e-09
-5.32481e-07
-1.5109e-08
-5.29336e-07
-2.2662e-08
-5.25111e-07
-3.02248e-08
-5.19808e-07
-3.77626e-08
-5.13436e-07
-4.52386e-08
-5.0601e-07
-5.26148e-08
-4.97546e-07