/*--------------------------------*- C++ -*----------------------------------*\
| =========                 |                                                 |
| \\      /  F ield         | OpenFOAM: The Open Source CFD Toolbox           |
|  \\    /   O peration     | Version:  2512                                  |
|   \\  /    A nd           | Website:  www.openfoam.com                      |
|    \\/     M anipulation  |                                                 |
\*---------------------------------------------------------------------------*/
FoamFile
{
    version     2.0;
    format      ascii;
    arch        "LSB;label=32;scalar=64";
    class       volScalarField;
    location    "0.1";
    object      p;
}
// * * * * * * * * * * * * * * * * * * * * * * * * * * * * * * * * * * * * * //

dimensions      [0 2 -2 0 0 0 0];

internalField   nonuniform List<scalar> 
10000
(
3.70926e-09
-2.60928e-05
-0.000105852
-0.00025664
-0.000442929
-0.000637855
-0.000826719
-0.0010009
-0.00115697
-0.00129185
-0.00140705
-0.00150499
-0.00158462
-0.00164521
-0.00168741
-0.0017103
-0.00171435
-0.00170127
-0.00166975
-0.00161913
-0.00155143
-0.001469
-0.00137251
-0.00126187
-0.00113797
-0.00100202
-0.000854258
-0.000694496
-0.000523005
-0.000339893
-0.000144655
6.28489e-05
0.000281406
0.000509146
0.000745208
0.000989704
0.00124218
0.00150115
0.00176529
0.00203459
0.00230971
0.00259075
0.00287733
0.00316904
0.00346524
0.0037648
0.00406654
0.00437002
0.00467569
0.00498399
0.00529414
0.00560415
0.00591235
0.00621869
0.00652436
0.00683035
0.00713624
0.0074403
0.00774097
0.00803794
0.00833186
0.00862298
0.00891068
0.0091939
0.00947154
0.0097424
0.010005
0.0102576
0.010499
0.0107281
0.0109449
0.0111496
0.0113423
0.0115227
0.01169
0.011844
0.0119852
0.0121142
0.0122314
0.0123361
0.0124271
0.0125031
0.0125634
0.0126079
0.0126368
0.0126508
0.0126502
0.012635
0.0126054
0.012562
0.0125063
0.0124406
0.0123675
0.0122899
0.012211
0.0121351
0.0120673
0.0120142
0.0119832
0.0119773
-8.56613e-06
-9.40476e-05
-0.000197754
-0.000338237
-0.000496545
-0.000656263
-0.000811537
-0.000957609
-0.00108938
-0.00120471
-0.00130389
-0.0013864
-0.00145316
-0.00150465
-0.00153869
-0.00155515
-0.00155497
-0.00153793
-0.00150432
-0.00145393
-0.00138718
-0.00130565
-0.00121031
-0.00110167
-0.000980567
-0.000847462
-0.000702356
-0.000545569
-0.000377652
-0.000198557
-7.62915e-06
0.000195119
0.000408479
0.00063098
0.000861877
0.00110089
0.00134717
0.00159934
0.0018568
0.00211998
0.00238905
0.00266352
0.002943
0.00322748
0.00351671
0.00380964
0.00410474
0.00440129
0.00469983
0.00500075
0.00530295
0.00560455
0.0059045
0.00620316
0.00650149
0.00679996
0.00709777
0.00739318
0.00768502
0.00797347
0.0082593
0.00854253
0.0088223
0.00909762
0.00936769
0.00963142
0.00988721
0.0101333
0.0103682
0.0105915
0.010803
0.0110032
0.0111918
0.0113684
0.011532
0.0116826
0.0118208
0.0119477
0.0120636
0.0121677
0.0122588
0.0123358
0.0123981
0.012446
0.0124797
0.0124995
0.0125056
0.0124982
0.0124775
0.0124445
0.0124006
0.0123479
0.0122886
0.0122254
0.0121611
0.0120993
0.0120442
0.0120005
0.0119742
0.0119686
-2.64108e-05
-0.000143256
-0.000260618
-0.000395069
-0.000536206
-0.000673081
-0.000805507
-0.000929882
-0.00104265
-0.00114364
-0.00122894
-0.00129904
-0.00135558
-0.00139736
-0.00142416
-0.00143527
-0.00142976
-0.00140833
-0.00137195
-0.00132045
-0.00125415
-0.00117347
-0.00107909
-0.000972449
-0.000854269
-0.000724135
-0.000581886
-0.000428097
-0.000263145
-8.67667e-05
0.000101268
0.000300384
0.00050946
0.000727808
0.000954965
0.00118988
0.00143107
0.00167751
0.00192935
0.00218738
0.00245148
0.00272067
0.00299451
0.00327328
0.00355662
0.00384333
0.00413225
0.00442305
0.00471613
0.00501129
0.0053069
0.00560117
0.0058939
0.0061863
0.00647933
0.00677253
0.00706432
0.0073531
0.00763823
0.00792017
0.00819954
0.00847624
0.00874951
0.00901851
0.00928256
0.00954055
0.00979078
0.0100314
0.0102614
0.0104803
0.0106885
0.0108859
0.0110722
0.0112463
0.0114072
0.0115552
0.0116913
0.0118168
0.0119317
0.0120354
0.0121266
0.0122044
0.0122688
0.0123198
0.0123575
0.0123818
0.0123928
0.0123906
0.0123761
0.0123504
0.0123148
0.012271
0.0122207
0.0121661
0.0121101
0.0120558
0.012007
0.0119677
0.0119423
0.0119332
-7.44476e-05
-0.000198302
-0.000316885
-0.000443478
-0.000569702
-0.000691679
-0.000806906
-0.00091356
-0.00101201
-0.00109871
-0.00117272
-0.00123372
-0.00128067
-0.001314
-0.00133391
-0.0013394
-0.00132936
-0.00130397
-0.00126411
-0.00121088
-0.00114442
-0.00106418
-0.000970957
-0.0008662
-0.000750179
-0.000622409
-0.000483008
-0.000332294
-0.000169928
4.52194e-06
0.000190497
0.000386725
0.000592295
0.000807138
0.00103095
0.00126213
0.00149887
0.0017406
0.00198786
0.00224118
0.00250039
0.00276485
0.00303431
0.00330861
0.00358687
0.00386777
0.00415075
0.00443634
0.00472495
0.00501539
0.00530531
0.00559333
0.00588025
0.0061678
0.00645663
0.00674561
0.00703278
0.00731658
0.00759662
0.00787341
0.00814745
0.00841854
0.00868612
0.00894974
0.00920884
0.00946214
0.00970772
0.00994397
0.0101702
0.0103866
0.0105932
0.0107896
0.0109747
0.0111472
0.0113065
0.0114529
0.0115879
0.0117126
0.0118271
0.0119306
0.012022
0.0121008
0.012167
0.0122206
0.0122612
0.0122885
0.0123024
0.0123037
0.0122934
0.0122727
0.0122428
0.0122047
0.0121597
0.0121096
0.0120572
0.0120058
0.0119592
0.0119208
0.0118928
0.0118754
-0.000130639
-0.000250825
-0.000364484
-0.000480296
-0.000596519
-0.000705704
-0.000807933
-0.000902301
-0.00098694
-0.00106176
-0.0011262
-0.00117839
-0.00121733
-0.00124316
-0.00125598
-0.00125538
-0.00124095
-0.00121234
-0.0011699
-0.00111494
-0.00104763
-0.000967792
-0.000876168
-0.000773196
-0.000658645
-0.000532572
-0.000395426
-0.000247117
-8.68715e-05
8.55762e-05
0.000269224
0.000462751
0.000665557
0.000877455
0.00109765
0.00132456
0.00155695
0.00179466
0.0020381
0.00228719
0.00254158
0.00280133
0.00306668
0.00333688
0.00361031
0.00388585
0.00416368
0.00444458
0.00472849
0.00501378
0.00529824
0.00558106
0.00586351
0.00614729
0.00643252
0.00671762
0.0070006
0.00728019
0.0075561
0.0078286
0.00809787
0.00836383
0.00862634
0.00888528
0.00914007
0.00938916
0.00963058
0.00986307
0.0100866
0.0103014
0.0105074
0.0107034
0.0108878
0.0110593
0.0112176
0.0113634
0.0114981
0.0116226
0.0117371
0.0118406
0.0119325
0.0120123
0.0120801
0.0121355
0.0121778
0.0122066
0.0122222
0.0122258
0.0122187
0.0122021
0.0121765
0.0121423
0.0121005
0.0120527
0.012002
0.0119518
0.0119056
0.0118661
0.0118325
0.0118031
-0.000179025
-0.000292272
-0.000399213
-0.000507543
-0.000613868
-0.000713166
-0.000806048
-0.000890738
-0.000965765
-0.00103151
-0.00108714
-0.00113131
-0.00116354
-0.00118328
-0.00118996
-0.00118356
-0.0011646
-0.00113315
-0.00108916
-0.00103279
-0.000964439
-0.000884912
-0.000794612
-0.000692978
-0.000579695
-0.000455228
-0.000319741
-0.00017274
-1.39017e-05
0.000156325
0.000337119
0.000527927
0.000728406
0.00093769
0.00115421
0.0013767
0.00160494
0.00183913
0.00207905
0.00232433
0.00257483
0.00283076
0.00309211
0.00335788
0.00362651
0.00389738
0.00417107
0.00444805
0.00472743
0.00500734
0.00528635
0.00556473
0.00584397
0.00612508
0.00640735
0.00668902
0.00696843
0.00724461
0.00751714
0.00778594
0.0080511
0.00831281
0.00857128
0.0088265
0.00907771
0.00932316
0.00956102
0.0097905
0.010012
0.010226
0.0104317
0.0106274
0.0108111
0.010982
0.01114
0.0112861
0.0114213
0.0115464
0.0116611
0.011765
0.0118573
0.0119379
0.0120065
0.0120625
0.0121051
0.0121341
0.0121502
0.0121552
0.0121505
0.012137
0.0121146
0.012083
0.012043
0.0119963
0.0119462
0.0118961
0.011849
0.0118062
0.0117645
0.0117207
-0.000215398
-0.000323926
-0.000426298
-0.000527517
-0.000626415
-0.000718445
-0.000803376
-0.000880222
-0.000948493
-0.00100731
-0.00105553
-0.00109285
-0.00111916
-0.00113373
-0.00113553
-0.00112482
-0.00110219
-0.00106806
-0.00102254
-0.000965115
-0.000896216
-0.000816807
-0.000726769
-0.00062555
-0.000513274
-0.000390223
-0.0002559
-0.00010969
4.79577e-05
0.000215931
0.0003939
0.000582148
0.000780171
0.000986409
0.00119928
0.00141805
0.00164284
0.00187373
0.00211026
0.00235214
0.00259957
0.00285262
0.00311054
0.00337193
0.00363582
0.00390253
0.00417283
0.00444636
0.00472145
0.00499633
0.00527065
0.00554553
0.00582236
0.00610133
0.00638114
0.00666002
0.00693668
0.00721024
0.00748003
0.00774572
0.00800751
0.00826602
0.00852168
0.00877429
0.00902271
0.00926513
0.00950003
0.00972717
0.00994726
0.0101606
0.0103659
0.010561
0.0107442
0.0109148
0.0110733
0.0112206
0.0113571
0.0114831
0.0115983
0.0117024
0.011795
0.0118756
0.0119439
0.0119993
0.0120411
0.0120695
0.0120856
0.0120913
0.0120882
0.0120769
0.0120566
0.0120266
0.0119875
0.0119412
0.011891
0.0118399
0.0117901
0.011742
0.0116905
0.011632
-0.000239873
-0.000347985
-0.000447237
-0.000542433
-0.000636682
-0.000723031
-0.000801447
-0.000872352
-0.000934989
-0.000988107
-0.00103092
-0.00106303
-0.00108405
-0.00109384
-0.00109222
-0.00107883
-0.00105381
-0.00101762
-0.00097031
-0.000911903
-0.000842867
-0.000763247
-0.000672588
-0.000571102
-0.000459274
-0.000336787
-0.000202943
-5.77037e-05
9.82048e-05
0.000264023
0.000439739
0.000625601
0.000820774
0.00102351
0.00123273
0.00144844
0.00167066
0.00189878
0.0021322
0.0023712
0.00261624
0.00286684
0.0031215
0.00337889
0.00363886
0.00390227
0.00416954
0.00443959
0.00471047
0.00498107
0.00525191
0.00552442
0.00579947
0.00607656
0.00635419
0.00663084
0.00690545
0.00717709
0.00744474
0.00770793
0.00796723
0.00822369
0.00847779
0.00872882
0.00897517
0.00921509
0.00944764
0.00967308
0.00989215
0.0101048
0.0103094
0.0105038
0.0106864
0.0108573
0.0110169
0.0111659
0.011304
0.011431
0.0115466
0.0116506
0.0117428
0.0118228
0.0118901
0.0119442
0.0119846
0.012012
0.0120279
0.0120342
0.0120324
0.0120223
0.0120031
0.0119738
0.011935
0.0118886
0.0118375
0.0117843
0.0117302
0.0116753
0.0116138
0.0115413
-0.000255537
-0.000365319
-0.00046335
-0.000556039
-0.000645274
-0.000727711
-0.000802138
-0.000868312
-0.000925765
-0.000974121
-0.001013
-0.00104132
-0.00105842
-0.00106457
-0.00106039
-0.00104548
-0.0010193
-0.000981686
-0.000932822
-0.000873522
-0.000803893
-0.000723276
-0.000631685
-0.000529765
-0.000417609
-0.000294671
-0.000160858
-1.68455e-05
0.000136888
0.000300558
0.000474431
0.000658007
0.000849974
0.00104914
0.00125524
0.00146846
0.0016884
0.00191412
0.00214522
0.00238223
0.00262534
0.00287341
0.00312474
0.00337865
0.00363577
0.00389688
0.00416157
0.00442816
0.0046951
0.00496228
0.00523089
0.00550203
0.00577578
0.00605119
0.00632696
0.00660194
0.00687512
0.00714529
0.00741123
0.00767262
0.00793046
0.00818609
0.00843971
0.00868994
0.00893478
0.0091728
0.00940369
0.00962805
0.00984642
0.0100583
0.010262
0.0104556
0.010638
0.0108096
0.0109707
0.0111214
0.0112609
0.0113886
0.0115041
0.0116076
0.011699
0.0117781
0.0118444
0.0118972
0.0119364
0.011963
0.0119787
0.0119856
0.0119845
0.0119752
0.0119562
0.0119268
0.0118875
0.0118403
0.0117875
0.0117309
0.0116716
0.0116097
0.0115388
0.0114537
-0.000263782
-0.000378086
-0.000478765
-0.000568487
-0.000654497
-0.000734426
-0.000806015
-0.000868483
-0.000921881
-0.000966439
-0.00100188
-0.00102741
-0.00104234
-0.00104671
-0.00104099
-0.00102514
-0.000998227
-0.000959773
-0.000910171
-0.000849956
-0.000778802
-0.000696507
-0.000603844
-0.000501188
-0.000387976
-0.000264096
-0.000130468
1.21422e-05
0.000164036
0.000325928
0.000497801
0.000678706
0.000867488
0.00106369
0.00126748
0.00147866
0.00169643
0.00192002
0.0021495
0.00238524
0.00262668
0.00287214
0.00312032
0.00337152
0.00362682
0.00388639
0.00414885
0.00441233
0.00467613
0.00494108
0.00520851
0.00547888
0.00575155
0.00602551
0.0062999
0.00657383
0.00684604
0.00711503
0.00737967
0.00764006
0.00789756
0.00815343
0.00840731
0.00865722
0.00890104
0.0091378
0.00936781
0.00959174
0.00980977
0.010021
0.0102238
0.0104168
0.0105994
0.0107719
0.0109346
0.0110867
0.011227
0.0113547
0.0114698
0.0115727
0.0116634
0.0117418
0.0118073
0.0118594
0.011898
0.0119242
0.0119401
0.0119473
0.0119465
0.0119371
0.0119176
0.0118874
0.011847
0.0117982
0.0117427
0.0116821
0.0116174
0.011549
0.0114694
0.0113725
-0.000268685
-0.000389241
-0.000492404
-0.000581882
-0.00066658
-0.000744162
-0.000813122
-0.00087316
-0.00092415
-0.000965814
-0.000998359
-0.00102192
-0.00103604
-0.00104036
-0.00103445
-0.00101792
-0.000990334
-0.00095158
-0.00090167
-0.000840134
-0.000766981
-0.000683084
-0.000589084
-0.000484796
-0.000370094
-0.000245731
-0.000112753
2.87105e-05
0.000179442
0.0003399
0.000509549
0.000687553
0.000873532
0.00106763
0.0012698
0.00147927
0.0016951
0.00191703
0.00214539
0.00238005
0.00261965
0.00286255
0.00310833
0.00335803
0.0036125
0.00387094
0.00413138
0.00439244
0.00465434
0.00491835
0.00518541
0.00545524
0.00572691
0.00599975
0.00627333
0.00654673
0.00681829
0.00708636
0.00735022
0.00761049
0.00786864
0.0081255
0.00838003
0.00862985
0.00887306
0.00910931
0.00933929
0.00956353
0.00978167
0.00999256
0.0101948
0.0103876
0.0105707
0.0107444
0.0109083
0.0110612
0.0112016
0.0113288
0.0114434
0.0115458
0.0116364
0.0117148
0.0117801
0.0118318
0.0118702
0.0118966
0.0119127
0.01192
0.0119188
0.0119084
0.0118877
0.011856
0.0118139
0.0117628
0.0117043
0.0116397
0.01157
0.0114955
0.0114071
0.0112986
-0.000274814
-0.000399924
-0.000506077
-0.000597628
-0.000681794
-0.000757613
-0.000824666
-0.000883085
-0.000932546
-0.00097261
-0.00100356
-0.0010261
-0.00104036
-0.00104534
-0.00103995
-0.00102337
-0.000995621
-0.000956691
-0.00090596
-0.000842836
-0.000768067
-0.000682792
-0.000587016
-0.000480575
-0.000364526
-0.000240295
-0.000108165
3.26343e-05
0.000182711
0.000341772
0.000509132
0.00068466
0.000868747
0.00106153
0.00126238
0.00147028
0.00168462
0.00190553
0.00213305
0.0023663
0.00260374
0.00284447
0.00308905
0.00333858
0.00359301
0.0038506
0.00410944
0.00436907
0.00463038
0.00489447
0.00516156
0.00543092
0.00570176
0.00597394
0.00624725
0.00652047
0.00679157
0.00705906
0.0073228
0.00758384
0.0078434
0.00810159
0.0083568
0.00860666
0.00884977
0.00908636
0.00931725
0.00954251
0.00976124
0.00997218
0.0101744
0.0103675
0.0105515
0.0107263
0.010891
0.011044
0.011184
0.0113107
0.011425
0.0115277
0.0116189
0.0116977
0.0117631
0.0118146
0.011853
0.0118796
0.011896
0.0119031
0.0119008
0.0118887
0.011866
0.0118322
0.011788
0.0117344
0.011673
0.0116047
0.0115302
0.0114489
0.0113512
0.0112312
-0.000283326
-0.00041288
-0.000522632
-0.000615597
-0.000700455
-0.000776079
-0.0008422
-0.000899214
-0.000947575
-0.000987294
-0.00101834
-0.00104118
-0.00105598
-0.00106158
-0.00105678
-0.00104087
-0.00101349
-0.000974016
-0.00092186
-0.000857414
-0.000781659
-0.000694891
-0.00059701
-0.000488913
-0.000372427
-0.000248558
-0.000116721
2.39423e-05
0.000173332
0.000330793
0.000496252
0.000670408
0.000853732
0.00104571
0.00124531
0.00145184
0.00166526
0.00188557
0.00211209
0.00234351
0.00257886
0.00281837
0.00306308
0.00331342
0.00356823
0.00382531
0.00408336
0.00434276
0.00460458
0.00486926
0.0051364
0.00540531
0.0056757
0.00594779
0.00622127
0.0064945
0.00676533
0.00703271
0.00729717
0.0075598
0.0078212
0.00808069
0.00833646
0.00858657
0.00883029
0.0090682
0.00930087
0.00952776
0.00974751
0.00995898
0.0101617
0.0103558
0.010541
0.0107167
0.0108818
0.0110347
0.0111744
0.0113011
0.0114158
0.0115194
0.0116114
0.0116907
0.0117561
0.0118075
0.0118458
0.0118725
0.011889
0.0118954
0.0118917
0.0118774
0.011852
0.0118158
0.0117693
0.0117136
0.0116496
0.0115775
0.0114974
0.0114085
0.0113013
0.0111702
-0.000294836
-0.000430437
-0.000542531
-0.000637233
-0.000723619
-0.000800252
-0.000866515
-0.000922891
-0.000970802
-0.00101093
-0.00104327
-0.00106751
-0.00108294
-0.00108899
-0.0010849
-0.00106986
-0.00104255
-0.00100211
-0.000948894
-0.000883782
-0.000806982
-0.000718378
-0.000618933
-0.00051052
-0.000394422
-0.000270582
-0.000138363
2.25759e-06
0.000150687
0.000306774
0.000471355
0.000645366
0.000828659
0.00102006
0.00121864
0.00142432
0.00163727
0.00185689
0.00208192
0.00231135
0.00254536
0.00278502
0.00303099
0.00328256
0.00353785
0.00379493
0.00405328
0.00431365
0.00457663
0.00484193
0.00510903
0.00537772
0.00564825
0.00592082
0.00619475
0.00646811
0.00673901
0.00700707
0.00727317
0.00753804
0.0078014
0.00806204
0.00831838
0.00856924
0.00881449
0.00905467
0.0092898
0.0095187
0.00973983
0.00995233
0.0101563
0.0103518
0.0105385
0.0107153
0.0108808
0.0110338
0.0111739
0.0113015
0.0114175
0.0115222
0.0116148
0.0116941
0.0117591
0.0118101
0.0118482
0.011875
0.0118912
0.0118967
0.0118911
0.0118742
0.0118461
0.0118074
0.0117588
0.0117011
0.0116343
0.0115578
0.011471
0.0113741
0.0112578
0.0111168
-0.000310301
-0.000451635
-0.000567338
-0.000664322
-0.000752287
-0.000830405
-0.000897891
-0.000955283
-0.00100399
-0.00104518
-0.00107897
-0.00110461
-0.00112102
-0.00112781
-0.00112433
-0.00110936
-0.00108149
-0.00104041
-0.000986903
-0.000921277
-0.000843126
-0.000753128
-0.000653437
-0.00054573
-0.000430022
-0.000305775
-0.000173183
-3.29936e-05
0.000114553
0.000270251
0.000435269
0.000609943
0.000793378
0.00098436
0.00118249
0.001388
0.00160058
0.00181901
0.00204214
0.00227005
0.002504
0.00274505
0.00299282
0.00324561
0.0035015
0.00375932
0.00401906
0.00428119
0.00454552
0.00481133
0.0050785
0.00534757
0.00561895
0.00589247
0.00616701
0.00644077
0.00671246
0.00698224
0.0072509
0.00751841
0.00778371
0.00804549
0.00830282
0.00855532
0.00880311
0.00904632
0.00928425
0.00951533
0.00973808
0.00995212
0.0101579
0.0103554
0.010544
0.0107222
0.0108886
0.0110426
0.0111841
0.0113136
0.0114314
0.0115371
0.0116297
0.0117082
0.0117722
0.0118226
0.0118606
0.0118873
0.0119029
0.011907
0.0118992
0.0118796
0.0118488
0.0118078
0.0117572
0.0116971
0.0116268
0.0115447
0.0114508
0.0113464
0.0112223
0.0110723
-0.000329013
-0.000477155
-0.000597858
-0.000697775
-0.000787816
-0.000867631
-0.000937353
-0.000997298
-0.00104818
-0.00109105
-0.0011261
-0.0011527
-0.00117033
-0.00117801
-0.00117457
-0.00115874
-0.00113015
-0.00108901
-0.00103535
-0.00096878
-0.000889646
-0.000799765
-0.000701083
-0.000594048
-0.000478145
-0.000353554
-0.000221291
-8.1842e-05
6.5576e-05
0.000222228
0.000388616
0.000564123
0.000747676
0.000938664
0.0011371
0.00134278
0.00155466
0.00177145
0.00199299
0.00222053
0.00245566
0.00269868
0.0029481
0.00320192
0.00345884
0.0037183
0.00398021
0.00424433
0.00450989
0.00477633
0.00504419
0.0053145
0.00558742
0.0058622
0.0061376
0.00641236
0.00668591
0.00695855
0.00723049
0.00750086
0.00776817
0.00803149
0.00829073
0.00854602
0.00879728
0.00904393
0.00928471
0.00951798
0.00974264
0.00995876
0.0101669
0.010367
0.010558
0.0107381
0.0109064
0.0110625
0.0112065
0.0113386
0.0114581
0.0115643
0.0116562
0.0117332
0.0117958
0.0118455
0.0118834
0.01191
0.0119247
0.0119269
0.0119164
0.0118939
0.0118605
0.0118172
0.0117641
0.0117007
0.0116256
0.0115375
0.011437
0.0113262
0.0111955
0.0110372
-0.000352235
-0.000508677
-0.000634288
-0.000738065
-0.000831602
-0.000914271
-0.000986736
-0.0010498
-0.00110381
-0.00114885
-0.00118512
-0.00121271
-0.0012312
-0.00123908
-0.00123491
-0.00121821
-0.00118928
-0.00114795
-0.00109343
-0.00102588
-0.000947036
-0.000858686
-0.000761213
-0.000654215
-0.000538014
-0.000413838
-0.000282479
-0.00014328
5.17269e-06
0.000163573
0.000331371
0.000507569
0.000691576
0.000883292
0.00108247
0.00128814
0.00149889
0.00171423
0.00193527
0.00216381
0.00240083
0.00264557
0.0028961
0.00315093
0.00340952
0.00367139
0.00393574
0.00420171
0.00446851
0.00473617
0.00500576
0.00527821
0.00555317
0.00582948
0.00610623
0.00638297
0.00665958
0.00693605
0.00721176
0.00748518
0.00775489
0.00802067
0.0082831
0.00854238
0.00879779
0.00904803
0.00929157
0.00952711
0.00975411
0.00997295
0.0101841
0.0103873
0.010581
0.0107639
0.0109352
0.0110945
0.0112418
0.0113764
0.0114973
0.0116034
0.0116939
0.0117693
0.0118308
0.0118799
0.0119177
0.0119438
0.0119573
0.0119571
0.0119434
0.0119177
0.0118814
0.0118352
0.0117788
0.0117109
0.0116302
0.0115361
0.0114301
0.0113141
0.0111772
0.0110108
-0.000383564
-0.000547193
-0.000678072
-0.000786465
-0.000884562
-0.000971582
-0.00104778
-0.00111418
-0.00117116
-0.00121862
-0.00125661
-0.00128527
-0.00130366
-0.00131067
-0.00130556
-0.00128844
-0.0012591
-0.00121672
-0.0011611
-0.00109362
-0.00101621
-0.000929324
-0.000832281
-0.000725237
-0.000609625
-0.000486598
-0.000355751
-0.00021568
-6.54972e-05
9.4435e-05
0.000263145
0.000440108
0.000625279
0.000818317
0.00101815
0.00122335
0.00143309
0.00164805
0.00187003
0.00210044
0.00233918
0.00258493
0.00283617
0.00309227
0.00335307
0.00361759
0.00388425
0.00415195
0.00442047
0.00469041
0.00496285
0.00523817
0.00551548
0.00579369
0.00607262
0.00635251
0.00663327
0.00691421
0.00719397
0.00747081
0.0077438
0.0080134
0.00828046
0.00854475
0.00880475
0.00905864
0.00930502
0.00954318
0.00977315
0.00999541
0.0102102
0.0104168
0.0106139
0.0108001
0.0109751
0.0111384
0.0112892
0.0114262
0.0115478
0.0116533
0.0117426
0.0118168
0.0118776
0.0119266
0.0119643
0.0119897
0.0120013
0.0119982
0.0119812
0.011952
0.0119122
0.0118622
0.0118012
0.011728
0.0116417
0.0115423
0.0114315
0.0113104
0.0111674
0.0109932
-0.000423916
-0.000595062
-0.000731614
-0.000844611
-0.000947923
-0.00104039
-0.0011213
-0.00119118
-0.00125084
-0.00130084
-0.00134083
-0.00136997
-0.00138749
-0.00139339
-0.00138764
-0.00136981
-0.00133909
-0.00129532
-0.00123962
-0.00117345
-0.00109728
-0.00101062
-0.000913516
-0.000807249
-0.000693129
-0.000571015
-0.000439577
-0.000297892
-0.000146265
1.44331e-05
0.000183806
0.000362038
0.000548938
0.000743254
0.000943291
0.00114807
0.00135785
0.00157398
0.00179795
0.00203014
0.00226983
0.00251598
0.00276795
0.00302568
0.00328882
0.00355572
0.0038244
0.00409413
0.00436534
0.00463877
0.00491497
0.00519357
0.00547349
0.00575422
0.00603639
0.00632055
0.00660618
0.00689188
0.00717593
0.00745689
0.00773445
0.00800944
0.00828245
0.00855249
0.00881738
0.00907515
0.00932484
0.00956639
0.00980018
0.0100265
0.0102454
0.0104557
0.0106564
0.0108465
0.0110255
0.0111929
0.011347
0.011486
0.0116082
0.0117132
0.0118018
0.0118757
0.0119367
0.011986
0.0120234
0.0120475
0.0120567
0.0120507
0.0120304
0.0119977
0.0119539
0.0118992
0.0118329
0.0117541
0.0116625
0.0115584
0.0114427
0.0113163
0.0111673
0.0109859
-0.000473966
-0.000653792
-0.000796707
-0.000915009
-0.00102367
-0.00112138
-0.00120711
-0.00128104
-0.00134391
-0.00139612
-0.00143717
-0.00146615
-0.0014831
-0.00148835
-0.00148172
-0.00146226
-0.00142977
-0.00138545
-0.00133071
-0.00126567
-0.00118955
-0.00110245
-0.00100582
-0.000901054
-0.000788074
-0.000665651
-0.000532855
-0.000389942
-0.000237765
-7.6658e-05
9.37743e-05
0.000273725
0.000462214
0.000657279
0.000857443
0.00106273
0.00127414
0.00149271
0.00171883
0.00195208
0.00219193
0.00243831
0.00269132
0.00295084
0.00321598
0.00348477
0.00375549
0.00402805
0.00430314
0.00458105
0.00486149
0.00514358
0.00542653
0.00571064
0.0059971
0.00628632
0.00657715
0.00686772
0.00715643
0.0074425
0.00772609
0.0080079
0.0082878
0.00856405
0.00883413
0.00909634
0.00935031
0.0095964
0.00983497
0.010066
0.0102892
0.0105035
0.0107079
0.0109019
0.011085
0.0112561
0.0114133
0.0115541
0.0116772
0.0117824
0.0118712
0.0119456
0.0120074
0.0120571
0.0120938
0.0121162
0.0121228
0.0121139
0.0120906
0.0120546
0.0120068
0.0119472
0.0118754
0.0117913
0.0116947
0.0115855
0.0114643
0.0113326
0.011178
0.0109902
-0.000536003
-0.000724388
-0.000874506
-0.0009989
-0.00111273
-0.00121518
-0.00130562
-0.00138406
-0.00145027
-0.00150404
-0.00154537
-0.00157435
-0.00159121
-0.00159572
-0.00158751
-0.00156643
-0.00153333
-0.00148954
-0.00143537
-0.00137002
-0.00129324
-0.00120633
-0.00111087
-0.00100702
-0.000893619
-0.000769826
-0.000635944
-0.000492769
-0.000340524
-0.000178658
-6.69125e-06
0.000174806
0.000364186
0.000559694
0.000760755
0.000968091
0.00118244
0.00140374
0.00163143
0.00186503
0.00210486
0.00235177
0.00260604
0.00286714
0.00313379
0.0034043
0.00367766
0.00395416
0.00423416
0.00451707
0.00480189
0.00508773
0.00537441
0.00566289
0.00595449
0.00624917
0.00654523
0.00684079
0.00713479
0.00742707
0.00771793
0.00800749
0.00829476
0.00857745
0.00885317
0.00912078
0.00938036
0.00963231
0.00987663
0.0101129
0.0103405
0.0105587
0.010767
0.0109649
0.0111519
0.0113265
0.0114864
0.0116291
0.0117535
0.0118599
0.0119499
0.0120255
0.0120881
0.0121378
0.0121734
0.0121937
0.0121979
0.0121866
0.0121609
0.012122
0.0120704
0.0120061
0.0119293
0.0118399
0.0117377
0.0116226
0.0114959
0.0113592
0.0111997
0.0110059
-0.000612338
-0.000808499
-0.00096541
-0.00109576
-0.00121513
-0.00132268
-0.0014177
-0.00150001
-0.00156879
-0.00162396
-0.001666
-0.00169545
-0.00171198
-0.00171529
-0.00170571
-0.00168432
-0.00165198
-0.00160871
-0.00155387
-0.0014874
-0.00141042
-0.00132438
-0.00122951
-0.00112486
-0.0010097
-0.000884532
-0.000750345
-0.000607311
-0.000454622
-0.000291494
-0.000118163
6.41019e-05
0.000253856
0.000450319
0.000653667
0.000864346
0.00108196
0.00130541
0.00153398
0.00176786
0.00200818
0.0022561
0.00251166
0.00277396
0.00304194
0.00331464
0.00359169
0.00387321
0.00415868
0.00444669
0.00473596
0.00502605
0.00531744
0.0056113
0.00590863
0.00620885
0.00651013
0.00681099
0.00711105
0.00741049
0.00770933
0.00800693
0.00830162
0.00859097
0.00887306
0.00914728
0.00941393
0.00967301
0.00992391
0.0101658
0.010398
0.0106203
0.0108325
0.0110344
0.0112251
0.0114031
0.0115657
0.0117107
0.0118371
0.0119454
0.0120373
0.0121144
0.0121775
0.0122266
0.0122607
0.012279
0.0122814
0.0122682
0.0122405
0.012199
0.012144
0.0120755
0.0119936
0.0118983
0.0117898
0.0116686
0.0115366
0.0113956
0.0112313
0.0110315
-0.000703857
-0.000907154
-0.00107004
-0.00120604
-0.00133138
-0.00144424
-0.0015432
-0.00162829
-0.00169928
-0.00175621
-0.00179945
-0.00182921
-0.00184523
-0.00184798
-0.00183855
-0.00181809
-0.00178651
-0.00174291
-0.00168708
-0.00162016
-0.00154364
-0.00145778
-0.0013617
-0.0012548
-0.00113776
-0.00101185
-0.00087755
-0.00073404
-0.000580234
-0.00041596
-0.00024209
-5.9685e-05
0.000130784
0.000329387
0.000536166
0.000750482
0.000970785
0.00119567
0.00142502
0.00165983
0.00190147
0.00215082
0.00240756
0.00267101
0.00294082
0.00321677
0.0034986
0.00378575
0.00407679
0.00436981
0.00466383
0.00495904
0.00525623
0.00555634
0.00585975
0.00616555
0.00647223
0.00677897
0.00708588
0.00739306
0.00769997
0.00800536
0.00830732
0.00860372
0.00889315
0.00917534
0.00945037
0.00971761
0.00997575
0.0102237
0.010461
0.0106878
0.0109044
0.0111105
0.0113053
0.0114867
0.0116522
0.0117999
0.0119289
0.0120398
0.0121339
0.0122124
0.0122758
0.0123239
0.0123566
0.0123734
0.0123743
0.0123598
0.0123304
0.0122865
0.0122281
0.0121552
0.0120676
0.0119657
0.0118505
0.0117234
0.0115868
0.0114415
0.011272
0.0110658
-0.000810429
-0.00102086
-0.00118979
-0.00133119
-0.00146172
-0.00157917
-0.00168156
-0.00176918
-0.00184252
-0.00190133
-0.00194552
-0.00197539
-0.00199177
-0.00199566
-0.00198788
-0.0019685
-0.0019369
-0.0018928
-0.00183696
-0.00177059
-0.00169406
-0.00160664
-0.00150784
-0.0013985
-0.00128016
-0.00115364
-0.00101844
-0.000873528
-0.000718508
-0.000553839
-0.000380104
-0.000197309
-5.03408e-06
0.000196731
0.000407086
0.00062434
0.000846551
0.00107277
0.00130361
0.00154037
0.00178407
0.00203509
0.00229321
0.00255845
0.00283127
0.00311171
0.00339903
0.00369187
0.00398825
0.0042864
0.0045859
0.00488733
0.00519136
0.00549835
0.00580814
0.00611983
0.00643245
0.00674583
0.00706024
0.00737534
0.00768999
0.00800271
0.00831188
0.00861592
0.00891383
0.00920525
0.00948967
0.00976574
0.0100317
0.0102863
0.0105295
0.0107618
0.0109837
0.0111947
0.0113938
0.011579
0.0117478
0.0118986
0.0120306
0.0121446
0.0122412
0.0123212
0.0123848
0.0124323
0.0124638
0.0124794
0.0124793
0.0124637
0.0124326
0.0123861
0.0123239
0.0122457
0.0121516
0.0120427
0.0119211
0.0117888
0.0116475
0.0114972
0.0113219
0.0111094
-0.000932363
-0.00115007
-0.00132529
-0.00147158
-0.00160606
-0.00172722
-0.00183303
-0.00192349
-0.00199891
-0.0020592
-0.00210436
-0.00213525
-0.00215344
-0.00215968
-0.00215382
-0.00213522
-0.00210375
-0.00206018
-0.00200537
-0.00193935
-0.00186138
-0.00177114
-0.00166956
-0.00155839
-0.00143884
-0.00131085
-0.00117372
-0.00102713
-0.000871455
-0.00070694
-0.000533076
-0.000348862
-0.00015382
5.11882e-05
0.000264273
0.000483461
0.000707301
0.000935514
0.00116897
0.0014086
0.00165485
0.00190795
0.00216825
0.00243659
0.00271384
0.00299969
0.00329268
0.00359094
0.00389256
0.00419637
0.00450241
0.0048112
0.00512289
0.00543726
0.00575391
0.00607218
0.00639167
0.00671255
0.00703488
0.00735781
0.00767985
0.00799968
0.00831629
0.00862873
0.00893615
0.00923769
0.00953208
0.00981734
0.0100916
0.0103538
0.0106042
0.0108434
0.0110715
0.0112882
0.0114921
0.0116814
0.011854
0.0120083
0.012144
0.0122614
0.0123609
0.0124427
0.0125071
0.0125544
0.0125851
0.0125996
0.0125983
0.0125813
0.0125482
0.0124985
0.0124316
0.0123473
0.0122463
0.0121308
0.0120036
0.0118661
0.0117193
0.0115631
0.0113818
0.0111628
-0.00107036
-0.00129484
-0.0014759
-0.00162676
-0.00176483
-0.00188937
-0.00199841
-0.00209145
-0.00216849
-0.00223017
-0.00227722
-0.00231071
-0.0023316
-0.00234014
-0.00233584
-0.00231841
-0.00228836
-0.00224643
-0.0021925
-0.00212563
-0.00204529
-0.00195244
-0.00184889
-0.00173608
-0.00161447
-0.00148392
-0.00134451
-0.00119675
-0.00104085
-0.000876088
-0.000700968
-0.000514365
-0.000316529
-0.00010921
0.000105453
0.000326059
0.000551972
0.000783204
0.00102021
0.00126326
0.00151254
0.00176861
0.0020325
0.00230549
0.00258827
0.00287987
0.00317834
0.00348183
0.00378903
0.00409937
0.00441306
0.00473014
0.0050501
0.00537236
0.0056966
0.00602254
0.00635006
0.00667925
0.00700979
0.00734047
0.00766986
0.0079971
0.00832183
0.00864347
0.00896102
0.00927301
0.00957747
0.00987211
0.0101552
0.010426
0.010685
0.0109324
0.011168
0.011391
0.0116001
0.0117939
0.0119706
0.0121292
0.0122693
0.0123908
0.0124937
0.012578
0.0126436
0.0126911
0.012721
0.0127343
0.0127314
0.0127123
0.0126764
0.0126227
0.0125504
0.0124597
0.0123523
0.0122311
0.0120984
0.011955
0.0118017
0.0116391
0.0114514
0.0112258
-0.00122458
-0.00145509
-0.00164145
-0.00179695
-0.00193889
-0.00206654
-0.00217821
-0.00227324
-0.00235208
-0.0024159
-0.00246587
-0.00250264
-0.00252623
-0.00253675
-0.00253425
-0.00251909
-0.00249152
-0.00245118
-0.00239711
-0.00232863
-0.00224633
-0.00215189
-0.00204679
-0.0019317
-0.00180704