/*--------------------------------*- C++ -*----------------------------------*\
| =========                 |                                                 |
| \\      /  F ield         | OpenFOAM: The Open Source CFD Toolbox           |
|  \\    /   O peration     | Version:  2512                                  |
|   \\  /    A nd           | Website:  www.openfoam.com                      |
|    \\/     M anipulation  |                                                 |
\*---------------------------------------------------------------------------*/
FoamFile
{
    version     2.0;
    format      ascii;
    arch        "LSB;label=32;scalar=64";
    class       surfaceScalarField;
    location    "0.1";
    object      phi;
}
// * * * * * * * * * * * * * * * * * * * * * * * * * * * * * * * * * * * * * //

dimensions      [0 3 -1 0 0 0 0];

oriented        oriented;

internalField   nonuniform List<scalar> 
19800
(
6.20406e-11
-6.20526e-11
1.6084e-10
-9.88151e-11
2.15017e-10
-5.41476e-11
2.00444e-10
1.45644e-11
1.05073e-10
9.53701e-11
-7.23118e-11
1.77384e-10
-3.28082e-10
2.55773e-10
-6.56408e-10
3.28324e-10
-1.05038e-09
3.93984e-10
-1.50278e-09
4.52405e-10
-2.00644e-09
5.03665e-10
-2.55444e-09
5.47988e-10
-3.14018e-09
5.85735e-10
-3.7575e-09
6.17312e-10
-4.40065e-09
6.43155e-10
-5.06441e-09
6.63751e-10
-5.74399e-09
6.79582e-10
-6.43506e-09
6.91067e-10
-7.13366e-09
6.98599e-10
-7.83622e-09
7.02562e-10
-8.53953e-09
7.03318e-10
-9.24073e-09
7.01192e-10
-9.93722e-09
6.96488e-10
-1.06267e-08
6.89477e-10
-1.13071e-08
6.80398e-10
-1.19765e-08
6.69457e-10
-1.26334e-08
6.56816e-10
-1.3276e-08
6.4262e-10
-1.3903e-08
6.27025e-10
-1.45132e-08
6.10178e-10
-1.51053e-08
5.92167e-10
-1.56784e-08
5.73045e-10
-1.62313e-08
5.52869e-10
-1.6763e-08
5.31702e-10
-1.72726e-08
5.09601e-10
-1.77592e-08
4.86611e-10
-1.82219e-08
4.62766e-10
-1.866e-08
4.38076e-10
-1.90726e-08
4.12551e-10
-1.94588e-08
3.86216e-10
-1.98179e-08
3.59106e-10
-2.01492e-08
3.31247e-10
-2.04518e-08
3.02642e-10
-2.07251e-08
2.73291e-10
-2.09683e-08
2.43209e-10
-2.11807e-08
2.1243e-10
-2.13617e-08
1.80987e-10
-2.15106e-08
1.48905e-10
-2.16268e-08
1.16206e-10
-2.17097e-08
8.29093e-11
-2.17588e-08
4.90487e-11
-2.17735e-08
1.4668e-11
-2.17533e-08
-2.01826e-11
-2.16978e-08
-5.54497e-11
-2.16068e-08
-9.10806e-11
-2.14797e-08
-1.27023e-10
-2.13165e-08
-1.63216e-10
-2.11169e-08
-1.99585e-10
-2.08809e-08
-2.36047e-10
-2.06084e-08
-2.72516e-10
-2.02995e-08
-3.08895e-10
-1.99544e-08
-3.45087e-10
-1.95734e-08
-3.80983e-10
-1.9157e-08
-4.16467e-10
-1.87055e-08
-4.51415e-10
-1.82199e-08
-4.85688e-10
-1.77007e-08
-5.19133e-10
-1.71491e-08
-5.51592e-10
-1.65663e-08
-5.82896e-10
-1.59534e-08
-6.12866e-10
-1.53121e-08
-6.41311e-10
-1.4644e-08
-6.68028e-10
-1.39513e-08
-6.92798e-10
-1.32359e-08
-7.15392e-10
-1.25003e-08
-7.35565e-10
-1.17472e-08
-7.53059e-10
-1.09796e-08
-7.67599e-10
-1.02007e-08
-7.789e-10
-9.41407e-09
-7.86668e-10
-8.62347e-09
-7.906e-10
-7.83309e-09
-7.90379e-10
-7.04741e-09
-7.8568e-10
-6.27124e-09
-7.76167e-10
-5.50975e-09
-7.61494e-10
-4.76843e-09
-7.41317e-10
-4.05314e-09
-7.15298e-10
-3.37003e-09
-6.83104e-10
-2.72561e-09
-6.44418e-10
-2.12665e-09
-5.98957e-10
-1.58016e-09
-5.46489e-10
-1.09331e-09
-4.86857e-10
-6.73273e-10
-4.20044e-10
-3.27007e-10
-3.46266e-10
-6.08507e-11
-2.66156e-10
1.20253e-10
-1.81109e-10
2.14144e-10
-9.38975e-11
2.2393e-10
-9.78602e-12
1.63087e-10
6.08448e-11
6.53809e-11
9.77117e-11
6.53896e-11
8.08049e-11
-1.42874e-10
1.64011e-10
-1.82019e-10
1.45088e-10
-3.52361e-11
-3.7872e-11
1.97541e-10
-4.11631e-10
4.69128e-10
-9.8491e-10
7.50674e-10
-1.7546e-09
1.02547e-09
-2.71038e-09
1.2841e-09
-3.83796e-09
1.52155e-09
-5.12096e-09
1.7354e-09
-6.54215e-09
1.92487e-09
-8.0843e-09
2.09015e-09
-9.7306e-09
2.23204e-09
-1.1465e-08
2.35168e-09
-1.32723e-08
2.45043e-09
-1.51383e-08
2.52981e-09
-1.70501e-08
2.59134e-09
-1.89955e-08
2.63649e-09
-2.09636e-08
2.6667e-09
-2.29444e-08
2.68333e-09
-2.49287e-08
2.68768e-09
-2.69085e-08
2.68094e-09
-2.88761e-08
2.66418e-09
-3.08251e-08
2.63842e-09
-3.27492e-08
2.60454e-09
-3.46431e-08
2.56332e-09
-3.65017e-08
2.51544e-09
-3.83206e-08
2.46149e-09
-4.00956e-08
2.40203e-09
-4.18229e-08
2.33752e-09
-4.34991e-08
2.26834e-09
-4.51209e-08
2.1948e-09
-4.66852e-08
2.11716e-09
-4.81891e-08
2.03566e-09
-4.963e-08
1.95049e-09
-5.10053e-08
1.86184e-09
-5.23123e-08
1.76982e-09
-5.35488e-08
1.67454e-09
-5.47123e-08
1.57608e-09
-5.58006e-08
1.47455e-09
-5.68116e-08
1.37003e-09
-5.77429e-08
1.2626e-09
-5.85926e-08
1.15234e-09
-5.93586e-08
1.03929e-09
-6.0039e-08
9.23541e-10
-6.06317e-08
8.05173e-10
-6.1135e-08
6.84287e-10
-6.15471e-08
5.60987e-10
-6.18663e-08
4.35381e-10
-6.2091e-08
3.07592e-10
-6.22197e-08
1.77754e-10
-6.2251e-08
4.60255e-11
-6.21838e-08
-8.74161e-11
-6.20169e-08
-2.22379e-10
-6.17493e-08
-3.58652e-10
-6.13803e-08
-4.96005e-10
-6.09094e-08
-6.34187e-10
-6.0336e-08
-7.72922e-10
-5.96602e-08
-9.11905e-10
-5.88819e-08
-1.05081e-09
-5.80015e-08
-1.18928e-09
-5.70197e-08
-1.32692e-09
-5.59373e-08
-1.46333e-09
-5.47557e-08
-1.59806e-09
-5.34765e-08
-1.73061e-09
-5.21017e-08
-1.86048e-09
-5.06338e-08
-1.9871e-09
-4.90755e-08
-2.10987e-09
-4.74303e-08
-2.22814e-09
-4.57019e-08
-2.34125e-09
-4.38947e-08
-2.44847e-09
-4.20137e-08
-2.54901e-09
-4.00644e-08
-2.64207e-09
-3.80531e-08
-2.72677e-09
-3.59864e-08
-2.8022e-09
-3.38721e-08
-2.86738e-09
-3.17184e-08
-2.92132e-09
-2.95343e-08
-2.96296e-09
-2.73298e-08
-2.9912e-09
-2.51155e-08
-3.00491e-09
-2.29029e-08
-3.00294e-09
-2.07045e-08
-2.98409e-09
-1.85335e-08
-2.94716e-09
-1.64041e-08
-2.89097e-09
-1.43311e-08
-2.81431e-09
-1.23303e-08
-2.71604e-09
-1.04183e-08
-2.5951e-09
-8.61223e-09
-2.45053e-09
-6.92961e-09
-2.28158e-09
-5.38836e-09
-2.08775e-09
-4.00623e-09
-1.86899e-09
-2.80035e-09
-1.62593e-09
-1.7864e-09
-1.36022e-09
-9.77332e-10
-1.07523e-09
-3.81427e-10
-7.77019e-10
8.55244e-13
-4.76177e-10
1.81991e-10
-1.90928e-10
1.93873e-10
4.89424e-11
9.752e-11
1.94046e-10
1.62913e-10
5.10337e-11
-1.93879e-10
2.31575e-11
-1.54159e-10
-1.80719e-10
1.68639e-10
-6.26378e-10
6.43198e-10
-1.34805e-09
1.19081e-09
-2.35866e-09
1.76128e-09
-3.65603e-09
2.32285e-09
-5.22809e-09
2.85616e-09
-7.0564e-09
3.34986e-09
-9.11887e-09
3.79786e-09
-1.13914e-08
4.19744e-09
-1.38494e-08
4.54811e-09
-1.64682e-08
4.85082e-09
-1.92239e-08
5.10742e-09
-2.20939e-08
5.32035e-09
-2.50565e-08
5.49241e-09
-2.80917e-08
5.62654e-09
-3.11808e-08
5.72567e-09
-3.43068e-08
5.7927e-09
-3.74539e-08
5.83044e-09
-4.06078e-08
5.84154e-09
-4.37553e-08
5.82849e-09
-4.68847e-08
5.79356e-09
-4.99852e-08
5.73886e-09
-5.30469e-08
5.66626e-09
-5.6061e-08
5.57746e-09
-5.90195e-08
5.47393e-09
-6.1915e-08
5.357e-09
-6.47408e-08
5.22782e-09
-6.74907e-08
5.0874e-09
-7.0159e-08
4.93659e-09
-7.27403e-08
4.7761e-09
-7.52296e-08
4.60655e-09
-7.76224e-08
4.42845e-09
-7.99142e-08
4.24227e-09
-8.21007e-08
4.04837e-09
-8.4178e-08
3.84707e-09
-8.61421e-08
3.63863e-09
-8.79893e-08
3.42328e-09
-8.9716e-08
3.20122e-09
-9.13186e-08
2.97266e-09
-9.27938e-08
2.73778e-09
-9.41382e-08
2.49675e-09
-9.53486e-08
2.24974e-09
-9.6422e-08
1.99692e-09
-9.73554e-08
1.7385e-09
-9.81458e-08
1.47469e-09
-9.87905e-08
1.20573e-09
-9.9287e-08
9.31868e-10
-9.96328e-08
6.53377e-10
-9.98256e-08
3.70573e-10
-9.98634e-08
8.38064e-11
-9.97443e-08
-2.06534e-10
-9.94667e-08
-5.00029e-10
-9.90291e-08
-7.96217e-10
-9.84305e-08
-1.09459e-09
-9.76701e-08
-1.3946e-09
-9.67474e-08
-1.69563e-09
-9.56623e-08
-1.99703e-09
-9.4415e-08
-2.29808e-09
-9.30063e-08
-2.59802e-09
-9.14372e-08
-2.89601e-09
-8.97094e-08
-3.19114e-09
-8.7825e-08
-3.48245e-09
-8.57868e-08
-3.76888e-09
-8.35979e-08
-4.04932e-09
-8.12625e-08
-4.32255e-09
-7.8785e-08
-4.5873e-09
-7.6171e-08
-4.84218e-09
-7.34265e-08
-5.08571e-09
-7.05587e-08
-5.31634e-09
-6.75753e-08
-5.53241e-09
-6.44852e-08
-5.73215e-09
-6.12982e-08
-5.91371e-09
-5.80253e-08
-6.07512e-09
-5.46784e-08
-6.21433e-09
-5.12705e-08
-6.3292e-09
-4.7816e-08
-6.41747e-09
-4.43303e-08
-6.47686e-09
-4.08303e-08
-6.50496e-09
-3.73338e-08
-6.49936e-09
-3.38603e-08
-6.4576e-09
-3.04303e-08
-6.3772e-09
-2.70655e-08
-6.25573e-09
-2.3789e-08
-6.09083e-09
-2.06248e-08
-5.88027e-09
-1.75978e-08
-5.62205e-09
-1.47339e-08
-5.3145e-09
-1.2059e-08
-4.95642e-09
-9.59942e-09
-4.54735e-09
-7.38055e-09
-4.08786e-09
-5.42639e-09
-3.58009e-09
-3.75813e-09
-3.02849e-09
-2.39237e-09
-2.44099e-09
-1.33855e-09
-1.83084e-09
-5.95274e-10
-1.21945e-09
-1.45465e-10
-6.40736e-10
5.03257e-11
-1.46844e-10
6.10807e-11
1.83279e-10
2.23993e-10
-1.60065e-11
-1.77877e-10
-2.03928e-10
3.37765e-11
-6.51754e-10
6.1646e-10
-1.41732e-09
1.40877e-09
-2.53279e-09
2.30627e-09
-4.0103e-09
3.23879e-09
-5.84683e-09
4.15939e-09
-8.02848e-09
5.03782e-09
-1.05339e-08
5.85531e-09
-1.3337e-08
6.60097e-09
-1.64089e-08
7.26931e-09
-1.97194e-08
7.85857e-09
-2.3238e-08
8.36944e-09
-2.69348e-08
8.80429e-09
-3.07811e-08
9.16661e-09
-3.47492e-08
9.46055e-09
-3.88133e-08
9.69063e-09
-4.29492e-08
9.86152e-09
-4.71344e-08
9.97789e-09
-5.13482e-08
1.00443e-08
-5.55717e-08
1.0065e-08
-5.97874e-08
1.00442e-08
-6.39795e-08
9.98564e-09
-6.81335e-08
9.89283e-09
-7.22361e-08
9.76896e-09
-7.62756e-08
9.61687e-09
-8.02407e-08
9.43911e-09
-8.41217e-08
9.23794e-09
-8.79092e-08
9.01533e-09
-9.15948e-08
8.77303e-09
-9.51707e-08
8.51251e-09
-9.86297e-08
8.23506e-09
-1.01965e-07
7.94176e-09
-1.0517e-07
7.63353e-09
-1.08239e-07
7.31119e-09
-1.11166e-07
6.9754e-09
-1.13946e-07
6.62673e-09
-1.16573e-07
6.26568e-09
-1.19042e-07
5.89268e-09
-1.21349e-07
5.50812e-09
-1.23489e-07
5.11235e-09
-1.25457e-07
4.70571e-09
-1.27248e-07
4.28852e-09
-1.2886e-07
3.8611e-09
-1.30287e-07
3.42379e-09
-1.31525e-07
2.97695e-09
-1.32571e-07
2.52096e-09
-1.33422e-07
2.05625e-09
-1.34073e-07
1.58325e-09
-1.34522e-07
1.10248e-09
-1.34766e-07
6.14484e-10
-1.34802e-07
1.19868e-10
-1.34628e-07
-3.8069e-10
-1.34242e-07
-8.86453e-10
-1.33641e-07
-1.39662e-09
-1.32826e-07
-1.91031e-09
-1.31794e-07
-2.42656e-09
-1.30545e-07
-2.94433e-09
-1.29079e-07
-3.46249e-09
-1.27398e-07
-3.97981e-09
-1.25501e-07
-4.49495e-09
-1.2339e-07
-5.00648e-09
-1.21069e-07
-5.51286e-09
-1.18539e-07
-6.01241e-09
-1.15804e-07
-6.50335e-09
-1.1287e-07
-6.98374e-09
-1.09741e-07
-7.45153e-09
-1.06424e-07
-7.90451e-09
-1.02925e-07
-8.34033e-09
-9.92547e-08
-8.75648e-09
-9.54207e-08
-9.15029e-09
-9.14342e-08
-9.51893e-09
-8.7307e-08
-9.8594e-09
-8.30521e-08
-1.01686e-08
-7.86842e-08
-1.04431e-08
-7.4219e-08
-1.06795e-08
-6.96741e-08
-1.08741e-08
-6.50683e-08
-1.10233e-08
-6.04221e-08
-1.11231e-08
-5.57575e-08
-1.11695e-08
-5.10983e-08
-1.11586e-08
-4.64696e-08
-1.10863e-08
-4.18983e-08
-1.09485e-08
-3.74126e-08
-1.07414e-08
-3.30423e-08
-1.04611e-08
-2.88183e-08
-1.01043e-08
-2.47723e-08
-9.66799e-09
-2.09371e-08
-9.14976e-09
-1.73453e-08
-8.54823e-09
-1.40293e-08
-7.86331e-09
-1.10204e-08
-7.0968e-09
-8.34733e-09
-6.25315e-09
-6.03517e-09
-5.34066e-09
-4.10308e-09
-4.37309e-09
-2.56175e-09
-3.37218e-09
-1.40998e-09
-2.37123e-09
-6.30433e-10
-1.42029e-09
-1.84814e-10
-5.92457e-10
-8.04954e-12
6.50916e-12
2.1594e-10
-9.40496e-11
-8.38261e-11
-4.71674e-10
4.11403e-10
-1.19814e-09
1.34293e-09
-2.31759e-09
2.52822e-09
-3.85456e-09
3.84326e-09
-5.8167e-09
5.20092e-09
-8.19793e-09
6.54062e-09
-1.09817e-08
7.82161e-09
-1.4144e-08
9.01753e-09
-1.76552e-08
1.01123e-08
-2.1483e-08
1.1097e-08
-2.55927e-08
1.19683e-08
-2.99496e-08
1.27263e-08
-3.45189e-08
1.33736e-08
-3.9267e-08
1.39147e-08
-4.41614e-08
1.4355e-08
-4.91715e-08
1.47007e-08
-5.42684e-08
1.49584e-08
-5.94252e-08
1.51346e-08
-6.46168e-08
1.52359e-08
-6.98203e-08
1.52685e-08
-7.50144e-08
1.52383e-08
-8.01797e-08
1.51509e-08
-8.52984e-08
1.50115e-08
-9.03542e-08
1.48248e-08
-9.53323e-08
1.4595e-08
-1.00219e-07
1.43259e-08
-1.05002e-07
1.40209e-08
-1.0967e-07
1.3683e-08
-1.14212e-07
1.33149e-08
-1.18618e-07
1.29188e-08
-1.22879e-07
1.24966e-08
-1.26988e-07
1.20502e-08
-1.30935e-07
1.15808e-08
-1.34714e-07
1.10898e-08
-1.38317e-07
1.05782e-08
-1.41737e-07
1.00469e-08
-1.44968e-07
9.49672e-09
-1.48003e-07
8.92837e-09
-1.50838e-07
8.34246e-09
-1.53465e-07
7.73956e-09
-1.55879e-07
7.12021e-09
-1.58076e-07
6.48495e-09
-1.60049e-07
5.83428e-09
-1.61794e-07
5.16876e-09
-1.63306e-07
4.48895e-09
-1.64581e-07
3.79546e-09
-1.65613e-07
3.08894e-09
-1.664e-07
2.3701e-09
-1.66937e-07
1.63973e-09
-1.67222e-07
8.98669e-10
-1.6725e-07
1.47868e-10
-1.67019e-07
-6.1165e-10
-1.66526e-07
-1.37876e-09
-1.65771e-07
-2.15222e-09
-1.6475e-07
-2.93069e-09
-1.63464e-07
-3.71273e-09
-1.61912e-07
-4.49674e-09
-1.60093e-07
-5.281e-09
-1.58009e-07
-6.06365e-09
-1.55662e-07
-6.84267e-09
-1.53052e-07
-7.61589e-09
-1.50184e-07
-8.38097e-09
-1.47061e-07
-9.1354e-09
-1.43688e-07
-9.87646e-09
-1.4007e-07
-1.06013e-08
-1.36215e-07
-1.13067e-08
-1.3213e-07
-1.19895e-08
-1.27825e-07
-1.2646e-08
-1.23309e-07
-1.32725e-08
-1.18594e-07
-1.3865e-08
-1.13694e-07
-1.44193e-08
-1.08622e-07
-1.49308e-08
-1.03396e-07
-1.5395e-08
-9.80321e-08
-1.58067e-08
-9.25507e-08
-1.61609e-08
-8.69728e-08
-1.64521e-08
-8.13212e-08
-1.66748e-08
-7.56209e-08
-1.68234e-08
-6.98986e-08
-1.68919e-08
-6.41827e-08
-1.68745e-08
-5.85036e-08
-1.67653e-08
-5.28936e-08
-1.65586e-08
-4.73862e-08
-1.62487e-08
-4.20168e-08
-1.58305e-08
-3.68219e-08
-1.52992e-08
-3.1839e-08
-1.46509e-08
-2.71061e-08
-1.38827e-08
-2.26611e-08
-1.29932e-08
-1.85413e-08
-1.19831e-08
-1.47822e-08
-1.08559e-08
-1.14165e-08
-9.6189e-09
-8.47218e-09
-8.28494e-09
-5.97104e-09
-6.87421e-09
-3.92593e-09
-5.41729e-09
-2.33806e-09
-3.9591e-09
-1.19389e-09
-2.56447e-09
-4.61801e-10
-1.32454e-09
-8.96846e-11
-3.65613e-10
1.26253e-10
-1.75135e-10
9.13073e-11
-7.53425e-10
9.89705e-10
-1.77375e-09
2.36326e-09
-3.26295e-09
4.01742e-09
-5.23427e-09
5.81458e-09
-7.68794e-09
7.65459e-09
-1.06129e-08
9.46555e-09
-1.39888e-08
1.11975e-08
-1.77882e-08
1.2817e-08
-2.19787e-08
1.43028e-08
-2.65245e-08
1.56428e-08
-3.13876e-08
1.68315e-08
-3.65296e-08
1.78683e-08
-4.1912e-08
1.8756e-08
-4.74971e-08
1.94998e-08
-5.32486e-08
2.01065e-08
-5.91319e-08
2.0584e-08
-6.51142e-08
2.09407e-08
-7.11648e-08
2.11852e-08
-7.7255e-08
2.13262e-08
-8.33583e-08
2.13718e-08
-8.94502e-08
2.13302e-08
-9.55081e-08
2.12089e-08
-1.01511e-07
2.10147e-08
-1.07441e-07
2.07542e-08
-1.13279e-07
2.04332e-08
-1.1901e-07
2.00569e-08
-1.24619e-07
1.963e-08
-1.30093e-07
1.91567e-08
-1.35418e-07
1.86406e-08
-1.40584e-07
1.80849e-08
-1.4558e-07
1.74924e-08
-1.50396e-07
1.68655e-08
-1.55021e-07
1.62063e-08
-1.59448e-07
1.55166e-08
-1.63668e-07
1.47978e-08
-1.67672e-07
1.40513e-08
-1.71454e-07
1.32782e-08
-1.75005e-07
1.24797e-08
-1.78319e-07
1.16565e-08
-1.81389e-07
1.08097e-08
-1.84209e-07
9.93982e-09
-1.86772e-07
9.0478e-09
-1.89072e-07
8.13439e-09
-1.91103e-07
7.20038e-09
-1.92861e-07
6.2466e-09
-1.94339e-07
5.27392e-09
-1.95534e-07
4.2833e-09
-1.96439e-07
3.27574e-09
-1.97052e-07
2.25236e-09
-1.97368e-07
1.21439e-09
-1.97383e-07
1.63147e-10
-1.97095e-07
-8.99907e-10
-1.965e-07
-1.97319e-09
-1.95598e-07
-3.05496e-09
-1.94385e-07
-4.14335e-09
-1.92861e-07
-5.2363e-09
-1.91027e-07
-6.33159e-09
-1.88881e-07
-7.42681e-09
-1.86425e-07
-8.51936e-09
-1.83661e-07
-9.60643e-09
-1.80592e-07
-1.0685e-08
-1.77221e-07
-1.17517e-08
-1.73554e-07
-1.28032e-08
-1.69594e-07
-1.38357e-08
-1.65351e-07
-1.4845e-08
-1.6083e-07
-1.5827e-08
-1.56043e-07
-1.67769e-08
-1.50999e-07
-1.76899e-08
-1.45711e-07
-1.85607e-08
-1.40192e-07
-1.93839e-08
-1.34458e-07
-2.01535e-08
-1.28525e-07
-2.08634e-08
-1.22413e-07
-2.15071e-08
-1.16142e-07
-2.20777e-08
-1.09735e-07
-2.25681e-08
-1.03216e-07
-2.29711e-08
-9.66115e-08
-2.3279e-08
-8.99508e-08
-2.34841e-08
-8.32643e-08
-2.35784e-08
-7.65847e-08
-2.35541e-08
-6.99467e-08
-2.34033e-08
-6.33869e-08
-2.31183e-08
-5.69438e-08
-2.26919e-08
-5.06571e-08
-2.21172e-08
-4.45681e-08
-2.13883e-08
-3.87187e-08
-2.05003e-08
-3.31513e-08
-1.94501e-08
-2.79082e-08
-1.82364e-08
-2.30304e-08
-1.68609e-08
-1.85571e-08
-1.53292e-08
-1.45241e-08
-1.36519e-08
-1.09624e-08
-1.18465e-08
-7.89692e-09
-9.93973e-09
-5.34375e-09
-7.97047e-09
-3.30867e-09
-5.99418e-09
-1.78495e-09
-4.08819e-09
-7.51715e-10
-2.35778e-09
-1.73339e-10
-9.43993e-10
-4.70886e-11
-2.54473e-10
3.45782e-10
-1.03333e-09
1.76857e-09
-2.34948e-09
3.67942e-09
-4.21098e-09
5.87891e-09
-6.61775e-09
8.22134e-09
-9.56066e-09
1.05975e-08
-1.3022e-08
1.29269e-08
-1.69765e-08
1.5152e-08
-2.13929e-08
1.72334e-08
-2.62354e-08
1.91453e-08
-3.1465e-08
2.08724e-08
-3.70408e-08
2.24073e-08
-4.29212e-08
2.37487e-08
-4.90645e-08
2.48993e-08
-5.54298e-08
2.58651e-08
-6.19776e-08
2.66543e-08
-6.86699e-08
2.72763e-08
-7.54707e-08
2.77415e-08
-8.23462e-08
2.80607e-08
-8.92645e-08
2.82444e-08
-9.61961e-08
2.83034e-08
-1.03114e-07
2.82478e-08
-1.09992e-07
2.8087e-08
-1.16807e-07
2.78302e-08
-1.23539e-07
2.74855e-08
-1.30166e-07
2.70606e-08
-1.36671e-07
2.65622e-08
-1.43038e-07
2.59964e-08
-1.4925e-07
2.53689e-08
-1.55294e-07
2.46843e-08
-1.61155e-07
2.39468e-08
-1.66823e-07
2.31603e-08
-1.72286e-07
2.23278e-08
-1.77532e-07
2.14522e-08
-1.82551e-07
2.05359e-08
-1.87334e-07
1.95809e-08
-1.91872e-07
1.85891e-08
-1.96156e-07
1.7562e-08
-2.00177e-07
1.65011e-08
-2.03928e-07
1.54075e-08
-2.07401e-07
1.42826e-08
-2.10589e-07
1.31275e-08
-2.13484e-07
1.19431e-08
-2.1608e-07
1.07305e-08
-2.18371e-07
9.49097e-09
-2.20349e-07
8.22549e-09
-2.22011e-07
6.93532e-09
-2.23349e-07
5.62172e-09
-2.2436e-07
4.28608e-09
-2.25037e-07
2.9299e-09
-2.25378e-07
1.55481e-09
-2.25377e-07
1.62605e-10
-2.25032e-07
-1.24478e-09
-2.2434e-07
-2.66524e-09
-2.23299e-07
-4.09645e-09
-2.21906e-07
-5.53594e-09
-2.20161e-07
-6.98097e-09
-2.18064e-07
-8.42861e-09
-2.15616e-07
-9.87566e-09
-2.12816e-07
-1.13187e-08
-2.09669e-07
-1.2754e-08
-2.06176e-07
-1.41775e-08
-2.02343e-07
-1.5585e-08
-1.98174e-07
-1.69718e-08
-1.93677e-07
-1.8333e-08
-1.88859e-07
-1.96633e-08
-1.83729e-07
-2.0957e-08
-1.78297e-07
-2.2208e-08
-1.72578e-07
-2.34098e-08
-1.66582e-07
-2.45558e-08
-1.60328e-07
-2.56385e-08
-1.53831e-07
-2.66503e-08
-1.47111e-07
-2.75832e-08
-1.4019e-07
-2.84286e-08
-1.3309e-07
-2.91778e-08
-1.25836e-07
-2.98215e-08
-1.18457e-07
-3.03501e-08
-1.10983e-07
-3.0754e-08
-1.03444e-07
-3.10231e-08
-9.58747e-08
-3.11472e-08
-8.83123e-08
-3.11164e-08
-8.07949e-08
-3.09207e-08
-7.33629e-08
-3.05504e-08
-6.60584e-08
-2.99964e-08
-5.89252e-08
-2.92504e-08
-5.20083e-08
-2.83051e-08
-4.53535e-08
-2.71551e-08
-3.90069e-08
-2.57967e-08
-3.3014e-08
-2.42292e-08
-2.74195e-08
-2.24555e-08
-2.22654e-08
-2.04833e-08
-1.75908e-08
-1.83265e-08
-1.34301e-08
-1.60072e-08
-9.81161e-09
-1.35583e-08
-6.75606e-09
-1.1026e-08
-4.27542e-09
-8.47481e-09
-2.3718e-09
-5.99182e-09
-1.03715e-09
-3.69244e-09
-2.54201e-10
-1.72694e-09
-3.01292e-10
-3.29606e-10
6.75384e-10
-1.30264e-09
2.74161e-09
-2.90798e-09
5.28476e-09
-5.13504e-09
8.10597e-09
-7.96964e-09
1.10559e-08
-1.13922e-08
1.402e-08
-1.53771e-08
1.69118e-08
-1.98934e-08
1.96683e-08
-2.49052e-08
2.22452e-08
-3.0373e-08
2.46131e-08
-3.62546e-08
2.67539e-08
-4.2506e-08
2.86588e-08
-4.90829e-08
3.03255e-08
-5.59408e-08
3.17571e-08
-6.3036e-08
3.29603e-08
-7.03263e-08
3.39445e-08
-7.77708e-08
3.47208e-08
-8.53308e-08
3.53016e-08
-9.29698e-08
3.56997e-08
-1.00653e-07
3.5928e-08
-1.08349e-07
3.59995e-08
-1.16028e-07
3.59264e-08
-1.23662e-07
3.57206e-08
-1.31225e-07
3.53931e-08
-1.38693e-07
3.49542e-08
-1.46046e-07
3.44132e-08
-1.53262e-07
3.37786e-08
-1.60324e-07
3.30583e-08
-1.67214e-07
3.22589e-08
-1.73917e-07
3.13867e-08
-1.80417e-07
3.04469e-08
-1.86701e-07
2.94442e-08
-1.92756e-07
2.83828e-08
-1.9857e-07
2.72663e-08
-2.04132e-07
2.60977e-08
-2.0943e-07
2.48797e-08
-2.14456e-07
2.36147e-08
-2.19199e-07
2.23047e-08
-2.23649e-07
2.09517e-08
-2.27799e-07
1.95572e-08
-2.31639e-07
1.8123e-08
-2.35162e-07
1.66503e-08
-2.3836e-07
1.51407e-08
-2.41225e-07
1.35956e-08
-2.4375e-07
1.20163e-08
-2.45929e-07
1.04045e-08
-2.47755e-07
8.76158e-09
-2.49223e-07
7.0893e-09
-2.50326e-07
5.38945e-09
-2.5106e-07
3.66394e-09
-2.5142e-07
1.91488e-09
-2.51402e-07
1.44561e-10
-2.51003e-07
-1.64453e-09
-2.50218e-07
-3.4497e-09
-2.49047e-07
-5.268e-09
-2.47486e-07
-7.09626e-09
-2.45536e-07
-8.93102e-09
-2.43196e-07
-1.07685e-08
-2.40467e-07
-1.26047e-08
-2.37351e-07
-1.44353e-08
-2.33849e-07
-1.62554e-08
-2.29966e-07
-1.80602e-08
-2.25707e-07
-1.9844e-08
-2.21078e-07
-2.1601e-08
-2.16086e-07
-2.33251e-08
-2.1074e-07
-2.50094e-08
-2.0505e-07
-2.66469e-08
-1.99028e-07
-2.82298e-08
-1.92688e-07
-2.975e-08
-1.86045e-07
-3.1199e-08
-1.79116e-07
-3.25676e-08
-1.7192e-07
-3.38461e-08
-1.64479e-07
-3.50245e-08
-1.56815e-07
-3.60922e-08
-1.48955e-07
-3.7038e-08
-1.40926e-07
-3.78506e-08
-1.32758e-07
-3.8518e-08
-1.24484e-07
-3.90281e-08
-1.16138e-07
-3.93686e-08
-1.07758e-07
-3.95271e-08
-9.93835e-08
-3.94911e-08
-9.10556e-08
-3.92485e-08
-8.28183e-08
-3.87877e-08
-7.4717e-08
-3.80977e-08
-6.67986e-08
-3.71687e-08
-5.91116e-08
-3.59922e-08
-5.17047e-08
-3.45619e-08
-4.46273e-08
-3.28741e-08
-3.79281e-08
-3.09284e-08
-3.16545e-08
-2.87291e-08
-2.58519e-08
-2.62859e-08
-2.05624e-08
-2.3616e-08
-1.58241e-08
-2.07456e-08
-1.16694e-08
-1.77129e-08
-8.12486e-09
-1.45706e-08
-5.20961e-09
-1.13901e-08
-2.93576e-09
-8.26567e-09
-1.30885e-09
-5.31935e-09
-3.29857e-10
-2.70594e-09
-6.31151e-10
-3.99562e-10
1.07495e-09
-1.55688e-09
3.89893e-09
-3.4395e-09
7.16739e-09
-6.01924e-09
1.06857e-08
-9.26792e-09
1.43046e-08
-1.3155e-08
1.79071e-08
-1.76465e-08
2.14033e-08
-2.27048e-08
2.47266e-08
-2.8289e-08
2.78295e-08
-3.43555e-08
3.06796e-08
-4.08586e-08
3.3257e-08
-4.77514e-08
3.55516e-08
-5.49867e-08
3.75608e-08
-6.25175e-08
3.92879e-08
-7.02976e-08
4.07405e-08
-7.82824e-08
4.19292e-08
-8.64286e-08
4.28671e-08
-9.46953e-08
4.35683e-08
-1.03043e-07
4.40478e-08
-1.11437e-07
4.43211e-08
-1.1984e-07
4.44031e-08
-1.28222e-07
4.43087e-08
-1.36554e-07
4.40518e-08
-1.44806e-07
4.36456e-08
-1.52954e-07
4.31025e-08
-1.60975e-07
4.24338e-08
-1.68846e-07
4.16498e-08
-1.76548e-07
4.07599e-08
-1.84061e-07
3.97723e-08
-1.91369e-07
3.86945e-08
-1.98455e-07
3.75331e-08
-2.05305e-07
3.62939e-08
-2.11904e-07
3.4982e-08
-2.1824e-07
3.36017e-08
-2.24299e-07
3.2157e-08
-2.3007e-07
3.06512e-08
-2.35543e-07
2.90873e-08
-2.40706e-07
2.74678e-08
-2.4555e-07
2.57953e-08
-2.50064e-07
2.40718e-08
-2.54241e-07
2.22992e-08
-2.5807e-07
2.04795e-08
-2.61543e-07
1.86145e-08
-2.64654e-07
1.67059e-08
-2.67393e-07
1.47556e-08
-2.69754e-07
1.27654e-08
-2.7173e-07
1.07375e-08
-2.73314e-07
8.67369e-09
-2.74501e-07
6.57641e-09
-2.75285e-07
4.44803e-09
-2.75662e-07
2.29116e-09
-2.75626e-07
1.08637e-10
-2.75174e-07
-2.09645e-09
-2.74303e-07
-4.32077e-09
-2.7301e-07
-6.56069e-09
-2.71294e-07
-8.81227e-09
-2.69154e-07
-1.10712e-08
-2.66589e-07
-1.3333e-08
-2.63601e-07
-1.55926e-08
-2.60192e-07
-1.78446e-08
-2.56364e-07
-2.00832e-08
-2.52122e-07
-2.23023e-08
-2.47471e-07
-2.4495e-08
-2.42418e-07
-2.66543e-08
-2.36971e-07
-2.87725e-08
-2.31139e-07
-3.08412e-08
-2.24934e-07
-3.28518e-08
-2.18369e-07
-3.4795e-08
-2.11458e-07
-3.66607e-08
-2.04218e-07
-3.84384e-08
-1.96669e-07
-4.01171e-08
-1.8883e-07
-4.1685e-08
-1.80725e-07
-4.31298e-08
-1.72378e-07
-4.44386e-08
-1.63818e-07
-4.5598e-08
-1.55075e-07
-4.65941e-08
-1.4618e-07
-4.74127e-08
-1.37169e-07
-4.80391e-08
-1.28079e-07
-4.84585e-08
-1.1895e-07
-4.86561e-08
-1.09824e-07
-4.8617e-08
-1.00746e-07
-4.8327e-08
-9.17614e-08
-4.77723e-08
-8.2919e-08
-4.69401e-08
-7.42688e-08
-4.58189e-08
-6.58618e-08
-4.43992e-08
-5.77499e-08
-4.26739e-08
-4.99849e-08
-4.06391e-08
-4.26185e-08
-3.82948e-08
-3.5701e-08
-3.56465e-08
-2.92809e-08
-3.2706e-08
-2.34039e-08
-2.9493e-08
-1.81118e-08
-2.60377e-08
-1.34421e-08
-2.23826e-08
-9.42729e-09
-1.85854e-08
-6.09469e-09
-1.47227e-08
-3.4667e-09
-1.08937e-08
-1.56226e-09
-7.22379e-09
-3.99331e-10
-3.86888e-09
-1.03048e-09
-4.64092e-10
1.53905e-09
-1.79411e-09
5.22894e-09
-3.93915e-09
9.31242e-09
-6.85497e-09
1.36016e-08
-1.05e-08
1.79496e-08
-1.48328e-08
2.22398e-08
-1.98106e-08
2.63811e-08
-2.53891e-08
3.03051e-08
-3.15216e-08
3.39621e-08
-3.81602e-08
3.73181e-08
-4.52555e-08
4.03522e-08
-5.27574e-08
4.30535e-08
-6.0616e-08
4.54194e-08
-6.87819e-08
4.74537e-08
-7.72065e-08
4.91651e-08
-8.58428e-08
5.05656e-08
-9.46458e-08
5.167e-08
-1.03572e-07
5.24947e-08
-1.12581e-07
5.30568e-08
-1.21634e-07
5.3374e-08
-1.30695e-07
5.34639e-08
-1.3973e-07
5.33434e-08
-1.48707e-07
5.3029e-08
-1.57597e-07
5.25361e-08
-1.66374e-07
5.18792e-08
-1.75012e-07
5.10715e-08
-1.83487e-07
5.01253e-08
-1.91779e-07
4.90516e-08
-1.99867e-07
4.78603e-08
-2.07733e-07
4.65602e-08
-2.15359e-07
4.51594e-08
-2.22729e-07
4.36646e-08
-2.29829e-07
4.20819e-08
-2.36645e-07
4.04169e-08
-2.43162e-07
3.8674e-08
-2.49368e-07
3.68574e-08
-2.55251e-07
3.49709e-08
-2.60801e-07
3.30174e-08
-2.66006e-07
3.10001e-08
-2.70856e-07
2.89215e-08
-2.7534e-07
2.6784e-08
-2.79451e-07
2.45899e-08
-2.83178e-07
2.23416e-08
-2.86513e-07
2.00412e-08
-2.89449e-07
1.76909e-08
-2.91976e-07
1.52932e-08
-2.94089e-07
1.28503e-08
-2.9578e-07
1.03649e-08
-2.97044e-07
7.83964e-09
-2.97873e-07
5.27753e-09
-2.98264e-07
2.68172e-09
-2.98211e-07
5.56466e-11
-2.9771e-07
-2.59698e-09
-2.96759e-07
-5.27211e-09
-2.95354e-07
-7.96538e-09
-2.93494e-07
-1.06721e-08
-2.91179e-07
-1.3387e-08
-2.88407e-07
-1.61047e-08
-2.8518e-07
-1.88191e-08
-2.81501e-07
-2.15238e-08
-2.77372e-07
-2.42119e-08
-2.72799e-07
-2.68758e-08
-2.67786e-07
-2.95075e-08
-2.62342e-07
-3.20986e-08
-2.56475e-07
-3.46396e-08
-2.50195e-07
-3.71209e-08
-2.43515e-07
-3.95318e-08
-2.36449e-07
-4.18614e-08
-2.29012e-07
-4.40976e-08
-2.21223e-07
-4.6228e-08
-2.131e-07
-4.82393e-08
-2.04668e-07
-5.01176e-08
-1.95949e-07
-5.18482e-08
-1.86972e-07
-5.3416e-08
-1.77765e-07
-5.48049e-08
-1.6836e-07
-5.59987e-08
-1.58793e-07
-5.69804e-08
-1.49099e-07
-5.77329e-08
-1.39319e-07
-5.82388e-08
-1.29494e-07
-5.84808e-08
-1.19669e-07
-5.84417e-08
-1.09892e-07
-5.81047e-08
-1.0021e-07
-5.74541e-08
-9.06749e-08
-5.64751e-08
-8.1339e-08
-5.51547e-08
-7.2256e-08
-5.34823e-08
-6.34801e-08
-5.14498e-08
-5.50661e-08
-4.90531e-08
-4.70682e-08
-4.62927e-08
-3.95398e-08
-4.3175e-08
-3.25324e-08
-3.97133e-08
-2.60954e-08
-3.59301e-08
-2.02749e-08
-3.18582e-08
-1.51139e-08
-2.75436e-08
-1.06512e-08
-2.30481e-08
-6.92231e-09
-1.84515e-08
-3.95994e-09
-1.3856e-08
-1.79562e-09
-9.38811e-09
-4.6244e-10
-5.20205e-09
-1.49292e-09
-5.23272e-10
2.06233e-09
-2.01391e-09
6.71958e-09
-4.40517e-09
1.17037e-08
-7.63847e-09
1.68349e-08
-1.16598e-08
2.19709e-08
-1.64171e-08
2.69972e-08
-2.18592e-08
3.18233e-08
-2.79345e-08
3.63803e-08
-3.45907e-08
4.06182e-08
-4.17749e-08
4.45024e-08
-4.9434e-08
4.80113e-08
-5.75147e-08
5.11342e-08
-6.59642e-08
5.38689e-08
-7.47305e-08
5.622e-08
-8.37629e-08
5.81975e-08
-9.30125e-08
5.98151e-08
-1.02432e-07
6.10895e-08
-1.11976e-07
6.20392e-08
-1.21603e-07
6.26836e-08
-1.31272e-07
6.30429e-08
-1.40945e-07
6.31369e-08
-1.50587e-07
6.29853e-08
-1.60165e-07
6.26067e-08
-1.69648e-07
6.20189e-08
-1.79007e-07
6.12386e-08
-1.88216e-07
6.0281e-08
-1.97251e-07
5.91604e-08
-2.06089e-07
5.78894e-08
-2.14709e-07
5.64798e-08
-2.2309e-07
5.49418e-08
-2.31216e-07
5.32847e-08
-2.39068e-07
5.15165e-08
-2.4663e-07
4.96445e-08
-2.53888e-07
4.7675e-08
-2.60828e-07
4.56136e-08
-2.67436e-07
4.34651e-08
-2.73699e-07
4.12339e-08
-2.79605e-07
3.89238e-08
-2.85143e-07
3.65383e-08
-2.90302e-07
3.40806e-08
-2.95072e-07
3.15536e-08
-2.99442e-07
2.89601e-08
-3.03403e-07
2.63028e-08
-3.06946e-07
2.35844e-08
-3.10063e-07
2.08076e-08
-3.12745e-07
1.79751e-08
-3.14985e-07
1.50899e-08
-3.16775e-07
1.2155e-08
-3.18109e-07
9.17372e-09
-3.18981e-07
6.14946e-09
-3.19385e-07
3.08603e-09
-3.19317e-07
-1.25029e-11
-3.18772e-07
-3.14174e-09
-3.17747e-07
-6.29691e-09
-3.1624e-07
-9.47285e-09
-3.14248e-07
-1.2664e-08
-3.11771e-07
-1.58642e-08
-3.08808e-07
-1.90671e-08
-3.05362e-07
-2.22655e-08
-3.01434e-07
-2.54518e-08
-2.97028e-07
-2.86179e-08
-2.92149e-07
-3.1755e-08
-2.86803e-07
-3.48537e-08
-2.80997e-07
-3.79038e-08
-2.74742e-07
-4.08946e-08
-2.68049e-07
-4.38145e-08
-2.60929e-07
-4.66511e-08
-2.53399e-07
-4.93915e-08
-2.45475e-07
-5.20218e-08
-2.37176e-07
-5.45272e-08
-2.28523e-07
-5.68923e-08
-2.19539e-07
-5.91009e-08
-2.10252e-07
-6.11358e-08
-2.00688e-07
-6.29794e-08
-1.9088e-07
-6.46132e-08
-1.80861e-07
-6.60181e-08
-1.70666e-07
-6.71747e-08
-1.60336e-07
-6.80632e-08
-1.49911e-07
-6.86634e-08
-1.39437e-07
-6.89556e-08
-1.28958e-07
-6.89199e-08
-1.18526e-07
-6.85374e-08
-1.0819e-07
-6.779e-08
-9.80038e-08
-6.66612e-08
-8.80223e-08
-6.51362e-08
-7.83015e-08
-6.32031e-08
-6.88981e-08
-6.08531e-08
-5.98695e-08
-5.80817e-08
-5.12726e-08
-5.48896e-08
-4.31638e-08
-5.12838e-08
-3.5598e-08
-4.72791e-08
-2.86284e-08
-4.28997e-08
-2.23058e-08
-3.81808e-08
-1.66783e-08
-3.31711e-08
-1.17918e-08
-2.79346e-08
-7.68965e-09
-2.25537e-08
-4.41432e-09
-1.71314e-08
-2.00882e-09
-1.17936e-08
-5.19402e-10
-6.69147e-09
-2.01232e-09
-5.77403e-10
2.63973e-09
-2.21671e-09
8.3589e-09
-4.83771e-09
1.43247e-08
-8.36919e-09
2.03663e-08
-1.27457e-08
2.63475e-08
-1.79055e-08
3.2157e-08
-2.37888e-08
3.77066e-08
-3.0337e-08
4.29285e-08
-3.74919e-08
4.77731e-08
-4.51958e-08
5.22063e-08
-5.33915e-08
5.6207e-08
-6.20223e-08
5.9765e-08
-7.10325e-08
6.28791e-08
-8.03676e-08
6.55552e-08
-8.99748e-08
6.78047e-08
-9.98029e-08
6.96433e-08
-1.09803e-07
7.10897e-08
-1.19929e-07
7.21647e-08
-1.30135e-07
7.28902e-08
-1.40381e-07
7.32888e-08
-1.50627e-07
7.33828e-08
-1.60836e-07
7.31944e-08
-1.70974e-07
7.27447e-08
-1.81009e-07
7.20538e-08
-1.90911e-07
7.11405e-08
-2.00652e-07
7.00225e-08
-2.10208e-07
6.87157e-08
-2.19553e-07
6.72348e-08
-2.28666e-07
6.5593e-08
-2.37526e-07
6.38022e-08
-2.46115e-07
6.18731e-08
-2.54413e-07
5.9815e-08
-2.62405e-07
5.76362e-08
-2.70074e-07
5.53441e-08
-2.77406e-07
5.29451e-08
-2.84386e-07
5.0445e-08
-2.91001e-07
4.78488e-08
-2.97238e-07
4.51611e-08
-3.03086e-07
4.23859e-08
-3.08532e-07
3.9527e-08
-3.13566e-07
3.65878e-08
-3.18178e-07
3.35717e-08
-3.22357e-07
3.04818e-08
-3.26094e-07
2.73213e-08
-3.2938e-07
2.40934e-08
-3.32206e-07
2.08013e-08
-3.34564e-07
1.74484e-08
-3.36448e-07
1.40384e-08
-3.37849e-07
1.05751e-08
-3.38762e-07
7.06239e-09
-3.39181e-07
3.50483e-09
-3.391e-07
-9.28979e-11
-3.38516e-07
-3.72566e-09
-3.37425e-07
-7.38793e-09
-3.35824e-07
-1.10737e-08
-3.33712e-07
-1.47765e-08
-3.31087e-07
-1.84893e-08
-3.27949e-07
-2.22045e-08
-3.24301e-07