/*--------------------------------*- C++ -*----------------------------------*\
| =========                 |                                                 |
| \\      /  F ield         | OpenFOAM: The Open Source CFD Toolbox           |
|  \\    /   O peration     | Version:  2512                                  |
|   \\  /    A nd           | Website:  www.openfoam.com                      |
|    \\/     M anipulation  |                                                 |
\*---------------------------------------------------------------------------*/
FoamFile
{
    version     2.0;
    format      ascii;
    arch        "LSB;label=32;scalar=64";
    class       surfaceScalarField;
    location    "0.1";
    object      phi;
}
// * * * * * * * * * * * * * * * * * * * * * * * * * * * * * * * * * * * * * //

dimensions      [0 3 -1 0 0 0 0];

oriented        oriented;

internalField   nonuniform List<scalar> 
19800
(
5.2349e-11
-5.23692e-11
3.01284e-10
-2.48943e-10
6.74267e-10
-3.72975e-10
9.54089e-10
-2.7984e-10
1.05983e-09
-1.05739e-10
9.92827e-10
6.70013e-11
7.77434e-10
2.15413e-10
4.41752e-10
3.35668e-10
9.69993e-12
4.3206e-10
-4.9546e-10
5.05159e-10
-1.06063e-09
5.65167e-10
-1.67326e-09
6.1263e-10
-2.32369e-09
6.50435e-10
-3.0038e-09
6.80132e-10
-3.70498e-09
7.01185e-10
-4.42207e-09
7.17083e-10
-5.15061e-09
7.28546e-10
-5.88603e-09
7.35411e-10
-6.62482e-09
7.3879e-10
-7.36384e-09
7.39024e-10
-8.09932e-09
7.35463e-10
-8.83035e-09
7.31028e-10
-9.55602e-09
7.25664e-10
-1.02735e-08
7.17481e-10
-1.09808e-08
7.07324e-10
-1.16772e-08
6.96357e-10
-1.2361e-08
6.83759e-10
-1.30297e-08
6.68763e-10
-1.36816e-08
6.5183e-10
-1.43152e-08
6.33634e-10
-1.49292e-08
6.14023e-10
-1.55216e-08
5.92341e-10
-1.60902e-08
5.6862e-10
-1.66342e-08
5.43967e-10
-1.71531e-08
5.1898e-10
-1.76463e-08
4.9314e-10
-1.81123e-08
4.66058e-10
-1.85508e-08
4.38499e-10
-1.89621e-08
4.11283e-10
-1.93463e-08
3.84202e-10
-1.97029e-08
3.56624e-10
-2.00311e-08
3.28169e-10
-2.033e-08
2.98886e-10
-2.05992e-08
2.69219e-10
-2.08386e-08
2.39371e-10
-2.10477e-08
2.09166e-10
-2.12265e-08
1.78753e-10
-2.13748e-08
1.48268e-10
-2.14918e-08
1.16992e-10
-2.15759e-08
8.41602e-11
-2.1626e-08
5.00734e-11
-2.16416e-08
1.55808e-11
-2.16228e-08
-1.88146e-11
-2.15696e-08
-5.31627e-11
-2.14814e-08
-8.81977e-11
-2.13565e-08
-1.24953e-10
-2.1193e-08
-1.63441e-10
-2.09908e-08
-2.02209e-10
-2.07509e-08
-2.39866e-10
-2.04745e-08
-2.76465e-10
-2.01616e-08
-3.12853e-10
-1.98122e-08
-3.49364e-10
-1.94265e-08
-3.85735e-10
-1.90048e-08
-4.21679e-10
-1.85479e-08
-4.56887e-10
-1.80571e-08
-4.90799e-10
-1.75343e-08
-5.22888e-10
-1.69812e-08
-5.53092e-10
-1.63995e-08
-5.81673e-10
-1.57907e-08
-6.08798e-10
-1.51562e-08
-6.34509e-10
-1.44973e-08
-6.58923e-10
-1.38152e-08
-6.82076e-10
-1.31116e-08
-7.03551e-10
-1.23891e-08
-7.22572e-10
-1.16505e-08
-7.38598e-10
-1.08988e-08
-7.51687e-10
-1.01365e-08
-7.62232e-10
-9.36613e-09
-7.70409e-10
-8.59024e-09
-7.7589e-10
-7.81228e-09
-7.77965e-10
-7.03648e-09
-7.75807e-10
-6.26784e-09
-7.68645e-10
-5.512e-09
-7.55834e-10
-4.77502e-09
-7.36978e-10
-4.06306e-09
-7.11956e-10
-3.38236e-09
-6.80702e-10
-2.73944e-09
-6.42924e-10
-2.14128e-09
-5.9816e-10
-1.59515e-09
-5.46124e-10
-1.1083e-09
-4.86857e-10
-6.87749e-10
-4.20549e-10
-3.4036e-10
-3.47388e-10
-7.26071e-11
-2.67753e-10
1.10209e-10
-1.82819e-10
2.05647e-10
-9.54386e-11
2.16984e-10
-1.13371e-11
1.58277e-10
5.87041e-11
6.39243e-11
9.43472e-11
6.39197e-11
-1.05432e-10
5.30575e-11
-4.84427e-11
-3.05923e-10
1.79034e-10
-6.00435e-10
3.20396e-10
-4.21191e-10
2.26927e-10
-1.22694e-11
-1.47317e-10
4.41246e-10
-7.99106e-10
8.67188e-10
-1.70437e-09
1.24095e-09
-2.8298e-09
1.55748e-09
-4.14613e-09
1.82151e-09
-5.62117e-09
2.04021e-09
-7.22868e-09
2.22013e-09
-8.94623e-09
2.36798e-09
-1.07517e-08
2.48561e-09
-1.26282e-08
2.57767e-09
-1.45595e-08
2.64838e-09
-1.653e-08
2.69902e-09
-1.85285e-08
2.73399e-09
-2.05452e-08
2.75546e-09
-2.2569e-08
2.76284e-09
-2.4592e-08
2.75841e-09
-2.66071e-08
2.74613e-09
-2.86071e-08
2.72571e-09
-3.05862e-08
2.6966e-09
-3.25392e-08
2.66034e-09
-3.44607e-08
2.6179e-09
-3.63455e-08
2.56851e-09
-3.81886e-08
2.51189e-09
-3.99858e-08
2.44904e-09
-4.17333e-08
2.38111e-09
-4.34272e-08
2.30796e-09
-4.5064e-08
2.22909e-09
-4.66402e-08
2.14482e-09
-4.81528e-08
2.05654e-09
-4.95989e-08
1.96512e-09
-5.09762e-08
1.8704e-09
-5.22824e-08
1.77227e-09
-5.35156e-08
1.67171e-09
-5.46738e-08
1.56954e-09
-5.5755e-08
1.46541e-09
-5.67572e-08
1.35885e-09
-5.7679e-08
1.24993e-09
-5.85188e-08
1.1387e-09
-5.92748e-08
1.0252e-09
-5.99452e-08
9.0972e-10
-6.05285e-08
7.92485e-10
-6.10233e-08
6.73555e-10
-6.14279e-08
5.52843e-10
-6.17406e-08
4.29682e-10
-6.19596e-08
3.03165e-10
-6.20829e-08
1.73437e-10
-6.21091e-08
4.18234e-11
-6.20373e-08
-9.06642e-11
-6.18661e-08
-2.24384e-10
-6.15938e-08
-3.60506e-10
-6.1219e-08
-4.99699e-10
-6.07412e-08
-6.41294e-10
-6.01598e-08
-7.83575e-10
-5.94747e-08
-9.24926e-10
-5.86864e-08
-1.06476e-09
-5.77959e-08
-1.2034e-09
-5.6804e-08
-1.34121e-09
-5.57118e-08
-1.47797e-09
-5.45206e-08
-1.61285e-09
-5.32328e-08
-1.74469e-09
-5.18512e-08
-1.87238e-09
-5.0379e-08
-1.99514e-09
-4.88195e-08
-2.11256e-09
-4.71766e-08
-2.22456e-09
-4.54542e-08
-2.33118e-09
-4.36563e-08
-2.43244e-09
-4.17871e-08
-2.52808e-09
-3.98519e-08
-2.61731e-09
-3.78567e-08
-2.6988e-09
-3.58081e-08
-2.77114e-09
-3.37134e-08
-2.83327e-09
-3.15805e-08
-2.88467e-09
-2.94176e-08
-2.92507e-09
-2.7234e-08
-2.95398e-09
-2.50396e-08
-2.97036e-09
-2.28449e-08
-2.97265e-09
-2.06618e-08
-2.95893e-09
-1.85033e-08
-2.92713e-09
-1.63837e-08
-2.8754e-09
-1.43184e-08
-2.80232e-09
-1.23234e-08
-2.7069e-09
-1.04159e-08
-2.58825e-09
-8.61325e-09
-2.44554e-09
-6.93336e-09
-2.27804e-09
-5.39408e-09
-2.08541e-09
-4.01316e-09
-1.86778e-09
-2.80788e-09
-1.62583e-09
-1.79417e-09
-1.3611e-09
-9.85223e-10
-1.0767e-09
-3.8955e-10
-7.7849e-10
-7.60913e-12
-4.7738e-10
1.73323e-10
-1.92271e-10
1.86519e-10
4.55088e-11
9.39099e-11
1.86961e-10
1.57827e-10
-3.00493e-10
3.5356e-10
-6.19265e-10
1.28478e-11
-8.43795e-10
-3.75905e-10
-1.15422e-09
-1.10759e-10
-1.69275e-09
5.26253e-10
-2.53296e-09
1.28147e-09
-3.69857e-09
2.03281e-09
-5.18321e-09
2.72558e-09
-6.96415e-09
3.33842e-09
-9.01159e-09
3.86895e-09
-1.12926e-08
4.32125e-09
-1.37751e-08
4.70267e-09
-1.64272e-08
5.02002e-09
-1.92216e-08
5.28e-09
-2.21315e-08
5.48757e-09
-2.51324e-08
5.64934e-09
-2.82046e-08
5.77121e-09
-3.13268e-08
5.85613e-09
-3.44813e-08
5.91001e-09
-3.76534e-08
5.93489e-09
-4.0829e-08
5.93407e-09
-4.39946e-08
5.91171e-09
-4.71382e-08
5.86927e-09
-5.02498e-08
5.80821e-09
-5.33202e-08
5.73066e-09
-5.63402e-08
5.63796e-09
-5.93022e-08
5.53046e-09
-6.21992e-08
5.40893e-09
-6.50249e-08
5.27469e-09
-6.77728e-08
5.12902e-09
-7.04371e-08
4.97231e-09
-7.30129e-08
4.8049e-09
-7.54957e-08
4.62764e-09
-7.78808e-08
4.44165e-09
-8.01635e-08
4.24777e-09
-8.23394e-08
4.04632e-09
-8.44048e-08
3.83768e-09
-8.6356e-08
3.62289e-09
-8.81892e-08
3.4027e-09
-8.99007e-08
3.17695e-09
-9.14872e-08
2.94538e-09
-9.29455e-08
2.70819e-09
-9.42725e-08
2.46569e-09
-9.54653e-08
2.218e-09
-9.65207e-08
1.96519e-09
-9.74359e-08
1.70764e-09
-9.82082e-08
1.44586e-09
-9.8835e-08
1.17966e-09
-9.93135e-08
9.08148e-10
-9.96413e-08
6.30939e-10
-9.98166e-08
3.48771e-10
-9.98375e-08
6.27205e-11
-9.97016e-08
-2.26526e-10
-9.94072e-08
-5.18848e-10
-9.8953e-08
-8.14668e-10
-9.83383e-08
-1.11436e-09
-9.75625e-08
-1.41716e-09
-9.6625e-08
-1.72105e-09
-9.55258e-08
-2.02412e-09
-9.4265e-08
-2.32553e-09
-9.28433e-08
-2.62516e-09
-9.12619e-08
-2.92257e-09
-8.95231e-08
-3.21679e-09
-8.76294e-08
-3.50655e-09
-8.55837e-08
-3.79036e-09
-8.33895e-08
-4.06661e-09
-8.10508e-08
-4.33383e-09
-7.85724e-08
-4.59097e-09
-7.59597e-08
-4.83728e-09
-7.32188e-08
-5.07205e-09
-7.03568e-08
-5.2944e-09
-6.73817e-08
-5.50317e-09
-6.43023e-08
-5.69672e-09
-6.11282e-08
-5.8729e-09
-5.787e-08
-6.02942e-09
-5.4539e-08
-6.16426e-09
-5.11479e-08
-6.27577e-09
-4.77105e-08
-6.36246e-09
-4.42419e-08
-6.42258e-09
-4.07584e-08
-6.45385e-09
-3.72776e-08
-6.4534e-09
-3.38186e-08
-6.41799e-09
-3.04014e-08
-6.3443e-09
-2.70476e-08
-6.2292e-09
-2.378e-08
-6.06995e-09
-2.06226e-08
-5.86424e-09
-1.76008e-08
-5.61013e-09
-1.47403e-08
-5.30599e-09
-1.20677e-08
-4.9507e-09
-9.60918e-09
-4.54389e-09
-7.39068e-09
-4.08628e-09
-5.43645e-09
-3.58007e-09
-3.76796e-09
-3.02959e-09
-2.40212e-09
-2.44254e-09
-1.34848e-09
-1.83213e-09
-6.05536e-10
-1.22033e-09
-1.55644e-10
-6.42168e-10
4.14536e-11
-1.51593e-10
5.61709e-11
1.72246e-10
2.13997e-10
-3.38155e-10
6.91704e-10
-8.91933e-10
5.66632e-10
-1.51472e-09
2.46879e-10
-2.29938e-09
6.73913e-10
-3.34803e-09
1.5749e-09
-4.72854e-09
2.66198e-09
-6.4698e-09
3.77408e-09
-8.57466e-09
4.83043e-09
-1.10267e-08
5.79046e-09
-1.38005e-08
6.64279e-09
-1.68625e-08
7.38318e-09
-2.01772e-08
8.01738e-09
-2.37104e-08
8.55322e-09
-2.74268e-08
8.99648e-09
-3.12956e-08
9.35635e-09
-3.52875e-08
9.64124e-09
-3.93736e-08
9.85724e-09
-4.35296e-08
1.00121e-08
-4.7732e-08
1.01125e-08
-5.19597e-08
1.01625e-08
-5.61939e-08
1.01683e-08
-6.04167e-08
1.01345e-08
-6.46119e-08
1.00645e-08
-6.87657e-08
9.96199e-09
-7.2865e-08
9.82999e-09
-7.68976e-08
9.67054e-09
-8.08529e-08
9.48573e-09
-8.47217e-08
9.27772e-09
-8.84954e-08
9.04841e-09
-9.21656e-08
8.79925e-09
-9.57247e-08
8.53139e-09
-9.91657e-08
8.24593e-09
-1.02482e-07
7.94435e-09
-1.05669e-07
7.62789e-09
-1.08718e-07
7.29731e-09
-1.11625e-07
6.95341e-09
-1.14385e-07
6.59715e-09
-1.16991e-07
6.22944e-09
-1.19439e-07
5.85084e-09
-1.21724e-07
5.46156e-09
-1.23841e-07
5.06199e-09
-1.25785e-07
4.65267e-09
-1.27553e-07
4.23365e-09
-1.2914e-07
3.80497e-09
-1.30542e-07
3.36708e-09
-1.31755e-07
2.92054e-09
-1.32775e-07
2.46585e-09
-1.33599e-07
2.00328e-09
-1.34223e-07
1.53254e-09
-1.34645e-07
1.05324e-09
-1.34862e-07
5.66025e-10
-1.34872e-07
7.23474e-11
-1.34672e-07
-4.26698e-10
-1.3426e-07
-9.30893e-10
-1.33634e-07
-1.44026e-09
-1.32794e-07
-1.95424e-09
-1.3174e-07
-2.47144e-09
-1.30471e-07
-2.99003e-09
-1.28987e-07
-3.50822e-09
-1.27288e-07
-4.02464e-09
-1.25375e-07
-4.53812e-09
-1.2325e-07
-5.04738e-09
-1.20916e-07
-5.55084e-09
-1.18376e-07
-6.04658e-09
-1.15634e-07
-6.53247e-09
-1.12694e-07
-7.00633e-09
-1.09562e-07
-7.46606e-09
-1.06243e-07
-7.90965e-09
-1.02745e-07
-8.3351e-09
-9.9077e-08
-8.74049e-09
-9.52476e-08
-9.12387e-09
-9.12678e-08
-9.483e-09
-8.71494e-08
-9.8151e-09
-8.29054e-08
-1.01168e-08
-7.85502e-08
-1.03847e-08
-7.4099e-08
-1.06154e-08
-6.95689e-08
-1.08059e-08
-6.49782e-08
-1.09532e-08
-6.03472e-08
-1.10536e-08
-5.56977e-08
-1.11033e-08
-5.10534e-08
-1.10978e-08
-4.64389e-08
-1.10324e-08
-4.18808e-08
-1.09024e-08
-3.74069e-08
-1.07031e-08
-3.30466e-08
-1.04303e-08
-2.88303e-08
-1.00805e-08
-2.479e-08
-9.65045e-09
-2.09582e-08
-9.13774e-09
-1.7368e-08
-8.5409e-09
-1.40521e-08
-7.85985e-09
-1.10419e-08
-7.09643e-09
-8.3669e-09
-6.25509e-09
-6.05247e-09
-5.34402e-09
-4.11816e-09
-4.37685e-09
-2.57485e-09
-3.37544e-09
-1.42143e-09
-2.37374e-09
-6.40426e-10
-1.42317e-09
-1.92858e-10
-5.99163e-10
-1.23338e-11
-8.27711e-12
2.01666e-10
-3.20683e-10
1.01239e-09
-1.0184e-09
1.26434e-09
-1.96685e-09
1.19532e-09
-3.19288e-09
1.89995e-09
-4.75088e-09
3.1329e-09
-6.68594e-09
4.59703e-09
-9.02181e-09
6.10996e-09
-1.17591e-08
7.56773e-09
-1.48866e-08
8.91799e-09
-1.83753e-08
1.01315e-08
-2.21936e-08
1.12015e-08
-2.63053e-08
1.21291e-08
-3.06711e-08
1.2919e-08
-3.5255e-08
1.35804e-08
-4.00208e-08
1.41221e-08
-4.49334e-08
1.45538e-08
-4.9961e-08
1.48848e-08
-5.50738e-08
1.51249e-08
-6.02433e-08
1.5282e-08
-6.54449e-08
1.53642e-08
-7.06553e-08
1.53787e-08
-7.58522e-08
1.53315e-08
-8.10166e-08
1.52288e-08
-8.61308e-08
1.50762e-08
-9.11787e-08
1.48779e-08
-9.61454e-08
1.46373e-08
-1.01018e-07
1.43581e-08
-1.05784e-07
1.40438e-08
-1.10433e-07
1.36972e-08
-1.14954e-07
1.33203e-08
-1.19338e-07
1.29154e-08
-1.23576e-07
1.24844e-08
-1.27661e-07
1.20292e-08
-1.31584e-07
1.1551e-08
-1.35338e-07
1.10511e-08
-1.38916e-07
1.05311e-08
-1.42311e-07
9.99211e-09
-1.45516e-07
9.43502e-09
-1.48526e-07
8.86052e-09
-1.51333e-07
8.26917e-09
-1.53933e-07
7.66163e-09
-1.56319e-07
7.03879e-09
-1.58487e-07
6.40116e-09
-1.6043e-07
5.74874e-09
-1.62145e-07
5.08187e-09
-1.63626e-07
4.40157e-09
-1.64869e-07
3.7088e-09
-1.6587e-07
3.00378e-09
-1.66624e-07
2.28641e-09
-1.67128e-07
1.55718e-09
-1.67379e-07
8.17311e-10
-1.67375e-07
6.81252e-11
-1.67112e-07
-6.89433e-10
-1.66588e-07
-1.45459e-09
-1.65802e-07
-2.22643e-09
-1.64753e-07
-3.00375e-09
-1.63439e-07
-3.78478e-09
-1.61862e-07
-4.56739e-09
-1.60021e-07
-5.34946e-09
-1.57916e-07
-6.12917e-09
-1.5555e-07
-6.90458e-09
-1.52924e-07
-7.67339e-09
-1.50041e-07
-8.43302e-09
-1.46907e-07
-9.18087e-09
-1.43525e-07
-9.9142e-09
-1.39902e-07
-1.063e-08
-1.36043e-07
-1.13252e-08
-1.31956e-07
-1.19964e-08
-1.2765e-07
-1.26405e-08
-1.23137e-07
-1.32542e-08
-1.18426e-07
-1.38341e-08
-1.13533e-07
-1.43767e-08
-1.0847e-07
-1.48777e-08
-1.03255e-07
-1.53323e-08
-9.79038e-08
-1.57356e-08
-9.24364e-08
-1.60828e-08
-8.68733e-08
-1.63691e-08
-8.12371e-08
-1.65894e-08
-7.55524e-08
-1.67383e-08
-6.98457e-08
-1.68099e-08
-6.41454e-08
-1.67981e-08
-5.84816e-08
-1.66962e-08
-5.2886e-08
-1.64981e-08
-4.73916e-08
-1.61974e-08
-4.20332e-08
-1.57887e-08
-3.68471e-08
-1.52667e-08
-3.18704e-08
-1.46271e-08
-2.71411e-08
-1.3867e-08
-2.26974e-08
-1.29846e-08
-1.85767e-08
-1.19805e-08
-1.48149e-08
-1.08582e-08
-1.14451e-08
-9.62492e-09
-8.49596e-09
-8.29316e-09
-5.98974e-09
-6.88307e-09
-3.93988e-09
-5.4253e-09
-2.34806e-09
-3.96557e-09
-1.20103e-09
-2.5702e-09
-4.66875e-10
-1.33331e-09
-9.18552e-11
-3.83294e-10
1.09813e-10
-3.10201e-10
1.32259e-09
-1.12536e-09
2.0795e-09
-2.35418e-09
2.42414e-09
-3.98125e-09
3.52702e-09
-6.02434e-09
5.17597e-09
-8.50214e-09
7.07484e-09
-1.14244e-08
9.03224e-09
-1.47882e-08
1.09315e-08
-1.85738e-08
1.27035e-08
-2.27567e-08
1.43144e-08
-2.73024e-08
1.57471e-08
-3.21717e-08
1.69985e-08
-3.73258e-08
1.80731e-08
-4.27239e-08
1.89784e-08
-4.83266e-08
1.97249e-08
-5.40962e-08
2.03234e-08
-5.9997e-08
2.07857e-08
-6.59949e-08
2.11229e-08
-7.20585e-08
2.13455e-08
-7.81588e-08
2.14645e-08
-8.42687e-08
2.14887e-08
-9.03636e-08
2.14263e-08
-9.64209e-08
2.12861e-08
-1.0242e-07
2.1075e-08
-1.08341e-07
2.07991e-08
-1.14167e-07
2.04639e-08
-1.19884e-07
2.00748e-08
-1.25476e-07
1.9636e-08
-1.3093e-07
1.91514e-08
-1.36235e-07
1.86245e-08
-1.41378e-07
1.80584e-08
-1.46349e-07
1.7456e-08
-1.5114e-07
1.68196e-08
-1.5574e-07
1.61508e-08
-1.6014e-07
1.54515e-08
-1.64332e-07
1.47236e-08
-1.68309e-07
1.3969e-08
-1.72063e-07
1.31886e-08
-1.75586e-07
1.23831e-08
-1.7887e-07
1.15537e-08
-1.8191e-07
1.07016e-08
-1.84699e-07
9.82759e-09
-1.8723e-07
8.93206e-09
-1.89497e-07
8.01577e-09
-1.91495e-07
7.07979e-09
-1.93218e-07
6.12509e-09
-1.94662e-07
5.15241e-09
-1.9582e-07
4.1624e-09
-1.9669e-07
3.15565e-09
-1.97266e-07
2.13312e-09
-1.97545e-07
1.09643e-09
-1.97524e-07
4.72495e-11
-1.972e-07
-1.01319e-09
-1.96571e-07
-2.08377e-09
-1.95634e-07
-3.16297e-09
-1.94389e-07
-4.24873e-09
-1.92836e-07
-5.33865e-09
-1.90973e-07
-6.43021e-09
-1.88801e-07
-7.52094e-09
-1.86322e-07
-8.6083e-09
-1.83537e-07
-9.68937e-09
-1.8045e-07
-1.07608e-08
-1.77064e-07
-1.18193e-08
-1.73383e-07
-1.28612e-08
-1.69414e-07
-1.38831e-08
-1.65164e-07
-1.48807e-08
-1.60639e-07
-1.58497e-08
-1.5585e-07
-1.67856e-08
-1.50807e-07
-1.76837e-08
-1.45521e-07
-1.85394e-08
-1.40008e-07
-1.93477e-08
-1.34281e-07
-2.01032e-08
-1.28359e-07
-2.08002e-08
-1.22259e-07
-2.14322e-08
-1.16002e-07
-2.19926e-08
-1.0961e-07
-2.24746e-08
-1.03108e-07
-2.28716e-08
-9.65204e-08
-2.31765e-08
-8.98771e-08
-2.33816e-08
-8.32082e-08
-2.34789e-08
-7.65461e-08
-2.34601e-08
-6.99253e-08
-2.3317e-08
-6.33818e-08
-2.30416e-08
-5.69533e-08
-2.26259e-08
-5.06793e-08
-2.20628e-08
-4.46002e-08
-2.13457e-08
-3.8758e-08
-2.04694e-08
-3.31948e-08
-1.94301e-08
-2.7953e-08
-1.82265e-08
-2.30738e-08
-1.68598e-08
-1.85965e-08
-1.53355e-08
-1.45576e-08
-1.36638e-08
-1.09888e-08
-1.1862e-08
-7.91557e-09
-9.95629e-09
-5.35504e-09
-7.98583e-09
-3.31393e-09
-6.00667e-09
-1.78634e-09
-4.0978e-09
-7.51473e-10
-2.36817e-09
-1.72919e-10
-9.61845e-10
-6.31047e-11
-3.17299e-10
1.6399e-09
-1.24908e-09
3.01126e-09
-2.73433e-09
3.90939e-09
-4.7327e-09
5.5254e-09
-7.23142e-09
7.67469e-09
-1.02276e-08
1.00711e-08
-1.37157e-08
1.25203e-08
-1.76822e-08
1.4898e-08
-2.21056e-08
1.7127e-08
-2.6955e-08
1.91638e-08
-3.21944e-08
2.09866e-08
-3.77839e-08
2.25879e-08
-4.36808e-08
2.39701e-08
-4.98432e-08
2.51408e-08
-5.62286e-08
2.61103e-08
-6.27964e-08
2.68912e-08
-6.95078e-08
2.74971e-08
-7.63257e-08
2.79408e-08
-8.3216e-08
2.82358e-08
-9.0146e-08
2.83944e-08
-9.70857e-08
2.84284e-08
-1.04008e-07
2.83488e-08
-1.10888e-07
2.81657e-08
-1.17701e-07
2.78881e-08
-1.24426e-07
2.75243e-08
-1.31044e-07
2.70819e-08
-1.37537e-07
2.65678e-08
-1.43889e-07
2.59875e-08
-1.50083e-07
2.53461e-08
-1.56107e-07
2.46485e-08
-1.61948e-07
2.3899e-08
-1.67593e-07
2.31011e-08
-1.73031e-07
2.22577e-08
-1.78252e-07
2.13713e-08
-1.83245e-07
2.04446e-08
-1.88001e-07
1.948e-08
-1.92511e-07
1.84791e-08
-1.96766e-07
1.74435e-08
-2.00758e-07
1.63747e-08
-2.04478e-07
1.52742e-08
-2.0792e-07
1.41432e-08
-2.11075e-07
1.29829e-08
-2.13937e-07
1.17939e-08
-2.16499e-07
1.05774e-08
-2.18754e-07
9.33492e-09
-2.20696e-07
8.06779e-09
-2.22321e-07
6.77694e-09
-2.23622e-07
5.4632e-09
-2.24594e-07
4.12768e-09
-2.25233e-07
2.77207e-09
-2.25535e-07
1.39845e-09
-2.25496e-07
8.69518e-12
-2.25114e-07
-1.39563e-09
-2.24385e-07
-2.81274e-09
-2.23308e-07
-4.24024e-09
-2.21881e-07
-5.67541e-09
-2.20104e-07
-7.11539e-09
-2.17977e-07
-8.55711e-09
-2.15501e-07
-9.99739e-09
-2.12676e-07
-1.14328e-08
-2.09506e-07
-1.28594e-08
-2.05994e-07
-1.42729e-08
-2.02145e-07
-1.5669e-08
-1.97963e-07
-1.70431e-08
-1.93455e-07
-1.83907e-08
-1.8863e-07
-1.97062e-08
-1.83495e-07
-2.09839e-08
-1.78063e-07
-2.22179e-08
-1.72345e-07
-2.3402e-08
-1.66354e-07
-2.45301e-08
-1.60106e-07
-2.55953e-08
-1.53619e-07
-2.65905e-08
-1.46911e-07
-2.7508e-08
-1.40004e-07
-2.83394e-08
-1.3292e-07
-2.90764e-08
-1.25685e-07
-2.97101e-08
-1.18325e-07
-3.02316e-08
-1.1087e-07
-3.06317e-08
-1.03351e-07
-3.09003e-08
-9.58029e-08
-3.10272e-08
-8.8261e-08
-3.1002e-08
-8.07635e-08
-3.08146e-08
-7.33501e-08
-3.04549e-08
-6.60626e-08
-2.99135e-08
-5.8944e-08
-2.91813e-08
-5.20389e-08
-2.82508e-08
-4.53928e-08
-2.71155e-08
-3.90514e-08
-2.57715e-08
-3.30603e-08
-2.42175e-08
-2.74641e-08
-2.2456e-08
-2.23054e-08
-2.04942e-08
-1.76237e-08
-1.83455e-08
-1.34541e-08
-1.60316e-08
-9.82586e-09
-1.35845e-08
-6.76094e-09
-1.10507e-08
-4.27275e-09
-8.49487e-09
-2.36472e-09
-6.00582e-09
-1.02985e-09
-3.70304e-09
-2.50828e-10
-1.74087e-09
-3.13931e-10
-3.41141e-10
1.98102e-09
-1.39572e-09
4.06586e-09
-3.12402e-09
5.63769e-09
-5.46917e-09
7.87053e-09
-8.39771e-09
1.06032e-08
-1.18843e-08
1.35576e-08
-1.59121e-08
1.65482e-08
-2.04565e-08
1.94423e-08
-2.54887e-08
2.21591e-08
-3.0974e-08
2.46491e-08
-3.68732e-08
2.68857e-08
-4.31438e-08
2.88586e-08
-4.97416e-08
3.05678e-08
-5.66214e-08
3.20207e-08
-6.3739e-08
3.32278e-08
-7.10511e-08
3.42034e-08
-7.85164e-08
3.49624e-08
-8.60954e-08
3.55198e-08
-9.3751e-08
3.58914e-08
-1.01448e-07
3.60916e-08
-1.09154e-07
3.61347e-08
-1.1684e-07
3.60346e-08
-1.24478e-07
3.5803e-08
-1.32041e-07
3.54512e-08
-1.39506e-07
3.49898e-08
-1.46853e-07
3.44284e-08
-1.5406e-07
3.3775e-08
-1.61109e-07
3.30371e-08
-1.67985e-07
3.22214e-08
-1.7467e-07
3.13342e-08
-1.81152e-07
3.03804e-08
-1.87415e-07
2.93644e-08
-1.93448e-07
2.82904e-08
-1.99238e-07
2.71617e-08
-2.04775e-07
2.59816e-08
-2.10048e-07
2.47528e-08
-2.15047e-07
2.34777e-08
-2.19761e-07
2.2158e-08
-2.24182e-07
2.07959e-08
-2.28301e-07
1.93933e-08
-2.3211e-07
1.79519e-08
-2.356e-07
1.64729e-08
-2.38764e-07
1.49575e-08
-2.41594e-07
1.34073e-08
-2.44083e-07
1.18244e-08
-2.46225e-07
1.021e-08
-2.48014e-07
8.56544e-09
-2.49443e-07
6.89208e-09
-2.50507e-07
5.1918e-09
-2.51202e-07
3.46679e-09
-2.51523e-07
1.71938e-09
-2.51466e-07
-4.82464e-11
-2.51027e-07
-1.83393e-09
-2.50205e-07
-3.63505e-09
-2.48997e-07
-5.44843e-09
-2.47401e-07
-7.27071e-09
-2.45418e-07
-9.09845e-09
-2.43048e-07
-1.09279e-08
-2.4029e-07
-1.27551e-08
-2.37147e-07
-1.45754e-08
-2.33623e-07
-1.63839e-08
-2.2972e-07
-1.81755e-08
-2.25444e-07
-1.99447e-08
-2.20802e-07
-2.16858e-08
-2.15799e-07
-2.33929e-08
-2.10446e-07
-2.50592e-08
-2.04753e-07
-2.66773e-08
-1.98731e-07
-2.82398e-08
-1.92394e-07
-2.9739e-08
-1.85757e-07
-3.11671e-08
-1.78837e-07
-3.25153e-08
-1.71653e-07
-3.37744e-08
-1.64227e-07
-3.49346e-08
-1.5658e-07
-3.59858e-08
-1.48739e-07
-3.69173e-08
-1.40731e-07
-3.77181e-08
-1.32586e-07
-3.83771e-08
-1.24335e-07
-3.88825e-08
-1.16013e-07
-3.92218e-08
-1.07658e-07
-3.93827e-08
-9.93073e-08
-3.93526e-08
-9.10027e-08
-3.91191e-08
-8.27873e-08
-3.86704e-08
-7.47057e-08
-3.7995e-08
-6.68045e-08
-3.70825e-08
-5.91315e-08
-3.59238e-08
-5.17353e-08
-3.45118e-08
-4.46648e-08
-3.28421e-08
-3.79684e-08
-3.09139e-08
-3.16938e-08
-2.87306e-08
-2.58865e-08
-2.63015e-08
-2.05893e-08
-2.36427e-08
-1.5841e-08
-2.07798e-08
-1.16754e-08
-1.77502e-08
-8.12004e-09
-1.46061e-08
-5.19607e-09
-1.14188e-08
-2.91761e-09
-8.28427e-09
-1.29258e-09
-5.32806e-09
-3.22741e-10
-2.7107e-09
-6.36672e-10
-3.75e-10
2.35603e-09
-1.5599e-09
5.25075e-09
-3.52283e-09
7.60063e-09
-6.19659e-09
1.05443e-08
-9.52724e-09
1.39339e-08
-1.34801e-08
1.75104e-08
-1.80192e-08
2.10874e-08
-2.31129e-08
2.4536e-08
-2.87246e-08
2.77708e-08
-3.48144e-08
3.07389e-08
-4.13395e-08
3.34109e-08
-4.82544e-08
3.57735e-08
-5.55126e-08
3.7826e-08
-6.30664e-08
3.95745e-08
-7.08699e-08
4.10313e-08
-7.88773e-08
4.22108e-08
-8.70449e-08
4.313e-08
-9.53314e-08
4.38062e-08
-1.03697e-07
4.42569e-08
-1.12105e-07
4.44995e-08
-1.20521e-07
4.45505e-08
-1.28912e-07
4.44257e-08
-1.37248e-07
4.41397e-08
-1.45503e-07
4.37062e-08
-1.53651e-07
4.31377e-08
-1.61668e-07
4.24455e-08
-1.69533e-07
4.16396e-08
-1.77225e-07
4.07294e-08
-1.84727e-07
3.97231e-08
-1.92021e-07
3.86281e-08
-1.99091e-07
3.74506e-08
-2.05923e-07
3.61962e-08
-2.12502e-07
3.48696e-08
-2.18816e-07
3.34756e-08
-2.24852e-07
3.2018e-08
-2.306e-07
3.05e-08
-2.36046e-07
2.89243e-08
-2.41182e-07
2.72938e-08
-2.45997e-07
2.5611e-08
-2.50482e-07
2.38781e-08
-2.54627e-07
2.2097e-08
-2.58423e-07
2.02694e-08
-2.61863e-07
1.83972e-08
-2.64939e-07
1.64827e-08
-2.67642e-07
1.45278e-08
-2.69966e-07
1.25341e-08
-2.71904e-07
1.05033e-08
-2.7345e-07
8.4376e-09
-2.74597e-07
6.33941e-09
-2.75342e-07
4.21141e-09
-2.75679e-07
2.05627e-09
-2.75604e-07
-1.2335e-10
-2.75113e-07
-2.32465e-09
-2.74204e-07
-4.54417e-09
-2.72874e-07
-6.77793e-09
-2.71123e-07
-9.0219e-09
-2.6895e-07
-1.1272e-08
-2.66354e-07
-1.35237e-08
-2.63337e-07
-1.57718e-08
-2.59902e-07
-1.80108e-08
-2.56051e-07
-2.02348e-08
-2.51789e-07
-2.24375e-08
-2.47121e-07
-2.46122e-08
-2.42055e-07
-2.67522e-08
-2.36598e-07
-2.88498e-08
-2.3076e-07
-3.08968e-08
-2.24553e-07
-3.28843e-08
-2.1799e-07
-3.48033e-08
-2.11084e-07
-3.66445e-08
-2.03853e-07
-3.8398e-08
-1.96316e-07
-4.00531e-08
-1.88492e-07
-4.15984e-08
-1.80404e-07
-4.30219e-08
-1.72079e-07
-4.43114e-08
-1.63542e-07
-4.54541e-08
-1.54823e-07
-4.64367e-08
-1.45955e-07
-4.72453e-08
-1.36972e-07
-4.78658e-08
-1.2791e-07
-4.82834e-08
-1.1881e-07
-4.84831e-08
-1.09712e-07
-4.84503e-08
-1.00661e-07
-4.81703e-08
-9.17017e-08
-4.76294e-08
-8.28826e-08
-4.68141e-08
-7.42527e-08
-4.57124e-08
-6.58627e-08
-4.43139e-08
-5.77638e-08
-4.26106e-08
-5.00079e-08
-4.05981e-08
-4.26461e-08
-3.82756e-08
-3.57289e-08
-3.56478e-08
-2.9305e-08
-3.27254e-08
-2.34204e-08
-2.95272e-08
-1.81182e-08
-2.60821e-08
-1.34368e-08
-2.24316e-08
-9.4103e-09
-1.86325e-08
-6.06803e-09
-1.47611e-08
-3.43531e-09
-1.0917e-08
-1.535e-09
-7.22837e-09
-3.87054e-10
-3.85864e-09
-1.02373e-09
-4.18154e-10
2.77417e-09
-1.73325e-09
6.56585e-09
-3.92293e-09
9.79031e-09
-6.90695e-09
1.35283e-08
-1.06209e-08
1.76478e-08
-1.50122e-08
2.19018e-08
-2.00364e-08
2.61115e-08
-2.5651e-08
3.01505e-08
-3.18127e-08
3.39324e-08
-3.84761e-08
3.74023e-08
-4.55941e-08
4.05289e-08
-5.31182e-08
4.32977e-08
-6.09989e-08
4.57067e-08
-6.91871e-08
4.77627e-08
-7.76339e-08
4.94781e-08
-8.62921e-08
5.0869e-08
-9.51157e-08
5.19535e-08
-1.04061e-07
5.27518e-08
-1.13087e-07
5.3283e-08
-1.22155e-07
5.35673e-08
-1.31228e-07
5.36238e-08
-1.40273e-07
5.34701e-08
-1.49257e-07
5.31237e-08
-1.58151e-07
5.26007e-08
-1.66929e-07
5.19157e-08
-1.75565e-07
5.10817e-08
-1.84037e-07
5.01108e-08
-1.92321e-07
4.90143e-08
-2.004e-07
4.7802e-08
-2.08255e-07
4.64824e-08
-2.15867e-07
4.50631e-08
-2.23222e-07
4.35509e-08
-2.30304e-07
4.19519e-08
-2.371e-07
4.02714e-08
-2.43596e-07
3.85139e-08
-2.49779e-07
3.66833e-08
-2.55638e-07
3.47833e-08
-2.61162e-07
3.28173e-08
-2.66339e-07
3.07883e-08
-2.7116e-07
2.86988e-08
-2.75614e-07
2.65511e-08
-2.79692e-07
2.43477e-08
-2.83386e-07
2.2091e-08
-2.86687e-07
1.97835e-08
-2.89587e-07
1.74276e-08
-2.92078e-07
1.50251e-08
-2.94153e-07
1.25784e-08
-2.95805e-07
1.00902e-08
-2.9703e-07
7.5636e-09
-2.9782e-07
5.00171e-09
-2.98171e-07
2.40759e-09
-2.98079e-07
-2.15483e-10
-2.9754e-07
-2.86387e-09
-2.96551e-07
-5.53333e-09
-2.95109e-07
-8.21915e-09
-2.93215e-07
-1.09166e-08
-2.90866e-07
-1.36209e-08
-2.88063e-07
-1.63264e-08
-2.84808e-07
-1.90269e-08
-2.81103e-07
-2.17158e-08
-2.76952e-07
-2.4386e-08
-2.72359e-07
-2.70302e-08
-2.67331e-07
-2.96405e-08
-2.61874e-07
-3.22085e-08
-2.55999e-07
-3.47252e-08
-2.49715e-07
-3.71807e-08
-2.43035e-07
-3.95645e-08
-2.35972e-07
-4.18659e-08
-2.28543e-07
-4.40738e-08
-2.20765e-07
-4.61763e-08
-2.12658e-07
-4.81604e-08
-2.04243e-07
-5.00125e-08
-1.95547e-07
-5.17186e-08
-1.86594e-07
-5.32641e-08
-1.77414e-07
-5.46338e-08
-1.68039e-07
-5.58118e-08
-1.58503e-07
-5.6782e-08
-1.48841e-07
-5.75273e-08
-1.39094e-07
-5.80306e-08
-1.29302e-07
-5.82746e-08
-1.19511e-07
-5.82421e-08
-1.09765e-07
-5.79164e-08
-1.00113e-07
-5.72814e-08
-9.06047e-08
-5.63219e-08
-8.12929e-08
-5.50242e-08
-7.22303e-08
-5.33764e-08
-6.34708e-08
-5.13701e-08
-5.50686e-08
-4.90002e-08
-4.70778e-08
-4.62665e-08
-3.95516e-08
-4.3174e-08
-3.25419e-08
-3.97351e-08
-2.60985e-08
-3.59706e-08
-2.02684e-08
-3.19122e-08
-1.50956e-08
-2.76044e-08
-1.06207e-08
-2.31074e-08
-6.88152e-09
-1.85003e-08
-3.91435e-09
-1.38842e-08
-1.75614e-09
-9.38658e-09
-4.43823e-10
-5.17097e-09
-1.46755e-09
-4.61947e-10
3.23612e-09
-1.90906e-09
8.01296e-09
-4.31722e-09
1.21985e-08
-7.59692e-09
1.6808e-08
-1.16718e-08
2.17227e-08
-1.64781e-08
2.67081e-08
-2.19611e-08
3.15946e-08
-2.80693e-08
3.62587e-08
-3.47523e-08
4.06154e-08
-4.19593e-08
4.46093e-08
-4.96388e-08
4.82084e-08
-5.77392e-08
5.13981e-08
-6.6208e-08
5.41755e-08
-7.49937e-08
5.65483e-08
-8.40453e-08
5.85297e-08
-9.33137e-08
6.01375e-08
-1.02752e-07
6.13913e-08
-1.12313e-07
6.23131e-08
-1.21955e-07
6.29253e-08
-1.31638e-07
6.32499e-08
-1.41322e-07
6.33084e-08
-1.50973e-07
6.31212e-08
-1.60558e-07
6.27084e-08
-1.70046e-07
6.20882e-08
-1.79407e-07
6.1277e-08
-1.88616e-07
6.02905e-08
-1.97648e-07
5.91429e-08
-2.06481e-07
5.78471e-08
-2.15093e-07
5.64142e-08
-2.23465e-07
5.48543e-08
-2.31578e-07
5.31765e-08
-2.39416e-07
5.13889e-08
-2.46963e-07
4.94987e-08
-2.54203e-07
4.75119e-08
-2.61123e-07
4.54338e-08
-2.67709e-07
4.32694e-08
-2.73949e-07
4.10231e-08
-2.79831e-07
3.86987e-08
-2.85342e-07
3.63e-08
-2.90473e-07
3.38297e-08
-2.95213e-07
3.12908e-08
-2.99551e-07
2.86864e-08
-3.0348e-07
2.60195e-08
-3.06989e-07
2.32928e-08
-3.10071e-07
2.0509e-08
-3.12716e-07
1.76706e-08
-3.14918e-07
1.47804e-08
-3.1667e-07
1.18421e-08
-3.17966e-07
8.85912e-09
-3.18799e-07
5.83483e-09
-3.19164e-07
2.77293e-09
-3.19057e-07
-3.22494e-10
-3.18474e-07
-3.44695e-09
-3.17412e-07
-6.59546e-09
-3.15868e-07
-9.76267e-09
-3.13842e-07
-1.29431e-08
-3.11332e-07
-1.61309e-08
-3.08339e-07
-1.93194e-08
-3.04865e-07
-2.25012e-08
-3.00912e-07
-2.56686e-08
-2.96484e-07
-2.88136e-08
-2.91587e-07
-3.19276e-08
-2.86226e-07
-3.50012e-08
-2.8041e-07
-3.80245e-08
-2.74149e-07
-4.09867e-08
-2.67453e-07
-4.38765e-08
-2.60336e-07
-4.66816e-08
-2.52812e-07
-4.93897e-08
-2.44898e-07
-5.19876e-08
-2.36614e-07
-5.4461e-08
-2.27979e-07
-5.6795e-08
-2.19018e-07
-5.89735e-08
-2.09756e-07
-6.09803e-08
-2.00222e-07
-6.27984e-08
-1.90446e-07
-6.44102e-08
-1.8046e-07
-6.57971e-08
-1.70302e-07
-6.69403e-08
-1.60009e-07
-6.78202e-08
-1.49623e-07
-6.8417e-08
-1.39186e-07
-6.8711e-08
-1.28746e-07
-6.86827e-08
-1.18349e-07
-6.83128e-08
-1.08048e-07
-6.75831e-08
-9.78932e-08
-6.64764e-08
-8.79401e-08
-6.49773e-08
-7.82437e-08
-6.30728e-08
-6.88605e-08
-6.07534e-08
-5.98471e-08
-5.80136e-08
-5.12603e-08
-5.48533e-08
-4.31564e-08
-5.1278e-08
-3.55905e-08
-4.7301e-08
-2.86163e-08
-4.29448e-08
-2.22852e-08
-3.82432e-08
-1.66466e-08
-3.32429e-08
-1.1748e-08
-2.80061e-08
-7.63535e-09
-2.26129e-08
-4.35541e-09
-1.71641e-08
-1.95776e-09
-1.17842e-08
-4.94642e-10
-6.63409e-09
-1.96219e-09
-5.06517e-10
3.74265e-09
-2.08292e-09
9.58936e-09
-4.69973e-09
1.48153e-08
-8.26018e-09
2.03685e-08
-1.26758e-08
2.61383e-08
-1.78749e-08
3.19072e-08
-2.37917e-08
3.75114e-08
-3.03671e-08
4.28341e-08
-3.75439e-08
4.77922e-08
-4.52661e-08
5.23315e-08
-5.34779e-08
5.64202e-08
-6.21236e-08
6.00437e-08
-7.11486e-08
6.32005e-08
-8.04984e-08
6.58981e-08
-9.01203e-08
6.81516e-08
-9.99628e-08
6.998e-08
-1.09977e-07
7.14056e-08
-1.20116e-07
7.24522e-08
-1.30335e-07
7.31444e-08
-1.40592e-07
7.35068e-08
-1.50847e-07
7.35636e-08
-1.61064e-07
7.33382e-08
-1.71208e-07
7.28524e-08
-1.81247e-07
7.21269e-08
-1.91151e-07
7.11807e-08
-2.00892e-07
7.00316e-08
-2.10445e-07
6.86958e-08
-2.19785e-07
6.71879e-08
-2.28892e-07
6.55207e-08
-2.37744e-07
6.37059e-08
-2.46321e-07
6.17542e-08
-2.54607e-07
5.96747e-08
-2.62584e-07
5.74757e-08
-2.70237e-07
5.51643e-08
-2.7755e-07
5.27468e-08
-2.84509e-07
5.02289e-08
-2.91102e-07
4.76159e-08
-2.97316e-07
4.49122e-08
-3.03137e-07
4.21219e-08
-3.08556e-07
3.92485e-08
-3.13561e-07
3.62957e-08
-3.18142e-07
3.32672e-08
-3.22289e-07
3.01664e-08
-3.25992e-07
2.69962e-08
-3.29243e-07
2.37599e-08
-3.32033e-07
2.04605e-08
-3.34354e-07
1.71018e-08
-3.362e-07
1.36877e-08
-3.37563e-07
1.02223e-08
-3.38438e-07
6.70926e-09
-3.38818e-07
3.15306e-09
-3.38699e-07
-4.41343e-10
-3.38077e-07
-4.06867e-09
-3.36949e-07
-7.72325e-09
-3.35313e-07
-1.1399e-08
-3.33167e-07
-1.50896e-08
-3.30509e-07
-1.8788e-08
-3.27342e-07
-2.24866e-08