/*--------------------------------*- C++ -*----------------------------------*\
| =========                 |                                                 |
| \\      /  F ield         | OpenFOAM: The Open Source CFD Toolbox           |
|  \\    /   O peration     | Version:  2512                                  |
|   \\  /    A nd           | Website:  www.openfoam.com                      |
|    \\/     M anipulation  |                                                 |
\*---------------------------------------------------------------------------*/
FoamFile
{
    version     2.0;
    format      ascii;
    arch        "LSB;label=32;scalar=64";
    class       volVectorField;
    location    "0.1";
    object      U;
}
// * * * * * * * * * * * * * * * * * * * * * * * * * * * * * * * * * * * * * //

dimensions      [0 1 -1 0 0 0 0];

internalField   nonuniform List<vector> 
10000
(
(-5.73041e-07 -5.81811e-06 0)
(1.40981e-05 -2.22786e-05 0)
(4.78285e-05 -2.89491e-05 0)
(8.37031e-05 -2.29544e-05 0)
(0.000104397 -1.25989e-05 0)
(0.000106092 -3.91026e-06 0)
(9.15963e-05 3.45432e-06 0)
(6.35357e-05 8.80452e-06 0)
(2.44885e-05 1.2374e-05 0)
(-2.24338e-05 1.53542e-05 0)
(-7.64421e-05 1.74042e-05 0)
(-0.000135795 1.90696e-05 0)
(-0.000198932 2.06698e-05 0)
(-0.000265744 2.14985e-05 0)
(-0.000335115 2.20577e-05 0)
(-0.000405851 2.26597e-05 0)
(-0.0004784 2.29711e-05 0)
(-0.000551848 2.30082e-05 0)
(-0.00062542 2.29781e-05 0)
(-0.000699353 2.27759e-05 0)
(-0.000773193 2.24446e-05 0)
(-0.000846605 2.22639e-05 0)
(-0.000919474 2.21513e-05 0)
(-0.000991642 2.18931e-05 0)
(-0.00106294 2.15759e-05 0)
(-0.0011332 2.13325e-05 0)
(-0.00120225 2.11037e-05 0)
(-0.00126992 2.0753e-05 0)
(-0.00133602 2.0238e-05 0)
(-0.00140034 1.96175e-05 0)
(-0.00146271 1.89632e-05 0)
(-0.00152302 1.82455e-05 0)
(-0.00158112 1.74491e-05 0)
(-0.00163684 1.66191e-05 0)
(-0.00169001 1.57939e-05 0)
(-0.00174058 1.49426e-05 0)
(-0.00178853 1.40111e-05 0)
(-0.00183381 1.30582e-05 0)
(-0.00187636 1.21984e-05 0)
(-0.00191613 1.14261e-05 0)
(-0.00195314 1.06448e-05 0)
(-0.0019874 9.77522e-06 0)
(-0.00201878 8.80633e-06 0)
(-0.00204716 7.84193e-06 0)
(-0.00207258 6.99696e-06 0)
(-0.00209503 6.23703e-06 0)
(-0.00211447 5.45636e-06 0)
(-0.00213086 4.61846e-06 0)
(-0.00214413 3.71385e-06 0)
(-0.00215415 2.72132e-06 0)
(-0.00216085 1.673e-06 0)
(-0.00216419 6.47234e-07 0)
(-0.00216411 -3.18335e-07 0)
(-0.00216055 -1.25807e-06 0)
(-0.00215346 -2.25262e-06 0)
(-0.00214278 -3.37991e-06 0)
(-0.00212835 -4.6406e-06 0)
(-0.0021101 -5.93455e-06 0)
(-0.00208803 -7.15135e-06 0)
(-0.00206221 -8.27013e-06 0)
(-0.0020327 -9.34407e-06 0)
(-0.00199955 -1.04223e-05 0)
(-0.00196279 -1.15211e-05 0)
(-0.00192241 -1.26329e-05 0)
(-0.00187844 -1.37221e-05 0)
(-0.001831 -1.47345e-05 0)
(-0.00178027 -1.56438e-05 0)
(-0.00172644 -1.64751e-05 0)
(-0.0016697 -1.72656e-05 0)
(-0.00161017 -1.80201e-05 0)
(-0.00154798 -1.87217e-05 0)
(-0.00148326 -1.9372e-05 0)
(-0.00141615 -1.99923e-05 0)
(-0.00134682 -2.05847e-05 0)
(-0.00127548 -2.11162e-05 0)
(-0.00120237 -2.15549e-05 0)
(-0.00112779 -2.1904e-05 0)
(-0.00105199 -2.21904e-05 0)
(-0.000975256 -2.24293e-05 0)
(-0.000897851 -2.26108e-05 0)
(-0.000820079 -2.27133e-05 0)
(-0.000742306 -2.27094e-05 0)
(-0.00066498 -2.25604e-05 0)
(-0.000588627 -2.22211e-05 0)
(-0.000513829 -2.16675e-05 0)
(-0.000441209 -2.09118e-05 0)
(-0.000371408 -1.99761e-05 0)
(-0.000305075 -1.88513e-05 0)
(-0.000242882 -1.74987e-05 0)
(-0.000185528 -1.58941e-05 0)
(-0.000133728 -1.40484e-05 0)
(-8.81963e-05 -1.19779e-05 0)
(-4.96399e-05 -9.66624e-06 0)
(-1.87598e-05 -7.0806e-06 0)
(3.82074e-06 -4.23448e-06 0)
(1.76909e-05 -1.22016e-06 0)
(2.27962e-05 1.73812e-06 0)
(1.98481e-05 4.16355e-06 0)
(1.15246e-05 5.13214e-06 0)
(3.25809e-06 3.2103e-06 0)
(-1.40123e-05 -4.35787e-06 0)
(-1.25648e-05 -3.62759e-05 0)
(5.46693e-06 -5.79396e-05 0)
(2.81896e-05 -4.35511e-05 0)
(3.38674e-05 -1.50428e-05 0)
(1.07465e-05 1.57183e-05 0)
(-4.08161e-05 4.26006e-05 0)
(-0.000119658 6.48082e-05 0)
(-0.000221507 8.35232e-05 0)
(-0.000344446 9.7698e-05 0)
(-0.000484878 0.000109458 0)
(-0.000639267 0.000119139 0)
(-0.000806418 0.000126672 0)
(-0.000983096 0.000132597 0)
(-0.00116727 0.000137165 0)
(-0.00135827 0.000140513 0)
(-0.00155366 0.00014278 0)
(-0.0017523 0.000144451 0)
(-0.00195343 0.000145285 0)
(-0.00215556 0.00014536 0)
(-0.00235805 0.000144835 0)
(-0.00256023 0.000144032 0)
(-0.00276113 0.000142932 0)
(-0.0029602 0.000141347 0)
(-0.00315698 0.000139368 0)
(-0.00335085 0.000137153 0)
(-0.00354126 0.000134623 0)
(-0.00372778 0.000131679 0)
(-0.00390996 0.000128373 0)
(-0.00408729 0.000124795 0)
(-0.00425937 0.000120928 0)
(-0.00442593 0.000116701 0)
(-0.00458669 0.000112128 0)
(-0.00474126 0.000107379 0)
(-0.00488926 0.000102526 0)
(-0.00503042 9.74978e-05 0)
(-0.00516465 9.2259e-05 0)
(-0.00529176 8.68904e-05 0)
(-0.00541141 8.15129e-05 0)
(-0.00552337 7.61432e-05 0)
(-0.00562757 7.0678e-05 0)
(-0.00572383 6.50482e-05 0)
(-0.00581197 5.92755e-05 0)
(-0.00589177 5.33963e-05 0)
(-0.00596307 4.74393e-05 0)
(-0.00602578 4.14411e-05 0)
(-0.00607982 3.54173e-05 0)
(-0.00612489 2.93212e-05 0)
(-0.00616072 2.30537e-05 0)
(-0.00618726 1.65412e-05 0)
(-0.00620443 9.80881e-06 0)
(-0.00621202 2.96375e-06 0)
(-0.00620983 -3.89629e-06 0)
(-0.00619773 -1.07685e-05 0)
(-0.00617554 -1.77654e-05 0)
(-0.00614312 -2.50175e-05 0)
(-0.00610048 -3.25161e-05 0)
(-0.00604761 -4.00836e-05 0)
(-0.00598437 -4.75347e-05 0)
(-0.00591066 -5.48282e-05 0)
(-0.00582662 -6.20364e-05 0)
(-0.00573245 -6.92185e-05 0)
(-0.00562824 -7.63657e-05 0)
(-0.00551402 -8.34262e-05 0)
(-0.00538997 -9.03267e-05 0)
(-0.0052564 -9.6981e-05 0)
(-0.00511363 -0.000103324 0)
(-0.00496199 -0.000109344 0)
(-0.00480182 -0.000115069 0)
(-0.00463349 -0.000120524 0)
(-0.00445738 -0.000125717 0)
(-0.00427387 -0.000130641 0)
(-0.00408348 -0.000135261 0)
(-0.00388681 -0.000139504 0)
(-0.0036845 -0.000143272 0)
(-0.0034772 -0.000146497 0)
(-0.0032656 -0.000149163 0)
(-0.00305052 -0.000151286 0)
(-0.00283291 -0.000152867 0)
(-0.00261374 -0.000153856 0)
(-0.00239404 -0.000154154 0)
(-0.00217488 -0.000153626 0)
(-0.00195749 -0.000152127 0)
(-0.00174322 -0.00014953 0)
(-0.00153357 -0.000145751 0)
(-0.00133013 -0.000140757 0)
(-0.00113458 -0.000134531 0)
(-0.000948648 -0.00012703 0)
(-0.000774113 -0.000118186 0)
(-0.000612745 -0.000107955 0)
(-0.000466321 -9.6334e-05 0)
(-0.000336606 -8.33477e-05 0)
(-0.000225296 -6.90532e-05 0)
(-0.000133907 -5.35752e-05 0)
(-6.35816e-05 -3.71844e-05 0)
(-1.48446e-05 -2.04672e-05 0)
(1.27339e-05 -4.54931e-06 0)
(2.11922e-05 8.60326e-06 0)
(1.56892e-05 1.56841e-05 0)
(5.11277e-06 1.15134e-05 0)
(-2.26323e-05 1.74459e-05 0)
(-4.83437e-05 -2.19821e-05 0)
(-7.33974e-05 -5.9316e-05 0)
(-9.66e-05 -3.86564e-05 0)
(-0.000135527 1.35464e-05 0)
(-0.000203078 7.29311e-05 0)
(-0.000303976 0.000130598 0)
(-0.000436194 0.000182849 0)
(-0.000600495 0.000227369 0)
(-0.000792821 0.000265386 0)
(-0.00100946 0.000297426 0)
(-0.00124889 0.000323759 0)
(-0.00150631 0.000345535 0)
(-0.00177916 0.000363358 0)
(-0.00206524 0.000377135 0)
(-0.00236117 0.000387763 0)
(-0.00266524 0.000395848 0)
(-0.00297557 0.000401274 0)
(-0.0032898 0.000404725 0)
(-0.00360642 0.000406211 0)
(-0.00392419 0.000405842 0)
(-0.00424153 0.000404155 0)
(-0.00455723 0.000401213 0)
(-0.00487032 0.000396966 0)
(-0.00517968 0.000391589 0)
(-0.00548436 0.000385231 0)
(-0.00578362 0.000377854 0)
(-0.00607678 0.000369485 0)
(-0.0063631 0.000360259 0)
(-0.0066419 0.000350316 0)
(-0.00691258 0.000339616 0)
(-0.00717471 0.000328108 0)
(-0.0074278 0.000315843 0)
(-0.00767129 0.000302991 0)
(-0.00790474 0.000289688 0)
(-0.00812777 0.000275894 0)
(-0.00833999 0.000261563 0)
(-0.008541 0.000246825 0)
(-0.0087303 0.000231768 0)
(-0.00890752 0.000216378 0)
(-0.0090725 0.00020066 0)
(-0.0092249 0.000184594 0)
(-0.00936423 0.000168146 0)
(-0.00949023 0.000151357 0)
(-0.00960269 0.000134251 0)
(-0.00970132 0.000116809 0)
(-0.00978581 9.90777e-05 0)
(-0.00985586 8.11129e-05 0)
(-0.00991112 6.28326e-05 0)
(-0.0099514 4.41113e-05 0)
(-0.00997665 2.49549e-05 0)
(-0.00998664 5.48174e-06 0)
(-0.00998099 -1.42003e-05 0)
(-0.00995944 -3.4064e-05 0)
(-0.00992194 -5.41753e-05 0)
(-0.00986848 -7.46189e-05 0)
(-0.00979901 -9.53587e-05 0)
(-0.00971342 -0.000116205 0)
(-0.00961163 -0.00013696 0)
(-0.0094936 -0.000157556 0)
(-0.00935939 -0.000178013 0)
(-0.00920917 -0.000198334 0)
(-0.00904312 -0.000218464 0)
(-0.00886142 -0.0002383 0)
(-0.00866433 -0.000257709 0)
(-0.00845221 -0.000276549 0)
(-0.00822547 -0.000294713 0)
(-0.00798454 -0.000312145 0)
(-0.00772989 -0.000328819 0)
(-0.00746206 -0.000344708 0)
(-0.00718171 -0.000359766 0)
(-0.0068896 -0.000373929 0)
(-0.00658663 -0.000387098 0)
(-0.00627374 -0.000399121 0)
(-0.00595192 -0.000409817 0)
(-0.0056222 -0.000419029 0)
(-0.00528573 -0.000426653 0)
(-0.00494387 -0.000432614 0)
(-0.00459813 -0.000436819 0)
(-0.0042501 -0.00043912 0)
(-0.00390148 -0.000439302 0)
(-0.00355403 -0.0004371 0)
(-0.00320971 -0.000432237 0)
(-0.00287059 -0.000424462 0)
(-0.00253892 -0.000413584 0)
(-0.00221707 -0.000399462 0)
(-0.0019075 -0.000381977 0)
(-0.00161275 -0.00036101 0)
(-0.00133545 -0.00033646 0)
(-0.00107825 -0.000308273 0)
(-0.000843783 -0.000276469 0)
(-0.000634585 -0.000241172 0)
(-0.000452984 -0.000202658 0)
(-0.000300953 -0.000161436 0)
(-0.000179882 -0.000118414 0)
(-9.02735e-05 -7.51787e-05 0)
(-3.13302e-05 -3.4351e-05 0)
(-3.42135e-07 -1.40857e-07 0)
(8.3286e-06 2.10462e-05 0)
(4.01524e-06 1.9607e-05 0)
(-2.1129e-05 5.13556e-05 0)
(-5.8853e-05 2.36991e-05 0)
(-0.000117905 -1.59465e-05 0)
(-0.000185906 1.62767e-05 0)
(-0.000274392 9.17283e-05 0)
(-0.00039551 0.000182656 0)
(-0.000550436 0.000275052 0)
(-0.000743509 0.00036149 0)
(-0.000971866 0.000439018 0)
(-0.0012336 0.000507384 0)
(-0.00152656 0.000565706 0)
(-0.00184608 0.0006153 0)
(-0.00218932 0.000657109 0)
(-0.00255274 0.000691236 0)
(-0.00293275 0.000718896 0)
(-0.00332651 0.000740599 0)
(-0.00373098 0.000756811 0)
(-0.00414364 0.000768397 0)
(-0.00456215 0.000775915 0)
(-0.00498424 0.000779478 0)
(-0.00540776 0.000779665 0)
(-0.00583093 0.000776921 0)
(-0.00625224 0.000771416 0)
(-0.00667011 0.000763462 0)
(-0.00708308 0.000753335 0)
(-0.00748991 0.000741138 0)
(-0.00788957 0.000726944 0)
(-0.00828104 0.00071092 0)
(-0.00866334 0.000693291 0)
(-0.00903566 0.00067421 0)
(-0.0093973 0.000653703 0)
(-0.00974754 0.000631793 0)
(-0.0100856 0.000608605 0)
(-0.0104108 0.000584271 0)
(-0.0107227 0.000558881 0)
(-0.0110207 0.000532501 0)
(-0.0113043 0.000505171 0)
(-0.0115727 0.000476989 0)
(-0.0118256 0.000448045 0)
(-0.0120623 0.000418284 0)
(-0.0122825 0.000387686 0)
(-0.0124857 0.000356385 0)
(-0.0126714 0.000324451 0)
(-0.0128392 0.000291812 0)
(-0.0129887 0.000258431 0)
(-0.0131196 0.000224361 0)
(-0.0132314 0.000189671 0)
(-0.0133236 0.000154398 0)
(-0.013396 0.000118521 0)
(-0.0134484 8.19806e-05 0)
(-0.0134805 4.47893e-05 0)
(-0.0134921 7.06074e-06 0)
(-0.0134826 -3.10937e-05 0)
(-0.0134519 -6.96534e-05 0)
(-0.0133999 -0.000108646 0)
(-0.0133267 -0.00014805 0)
(-0.013232 -0.00018775 0)
(-0.013116 -0.000227574 0)
(-0.0129783 -0.000267351 0)
(-0.0128191 -0.000306971 0)
(-0.0126384 -0.000346369 0)
(-0.0124365 -0.000385474 0)
(-0.0122135 -0.000424158 0)
(-0.0119697 -0.000462242 0)
(-0.0117054 -0.00049954 0)
(-0.0114212 -0.000535878 0)
(-0.0111175 -0.000571103 0)
(-0.0107948 -0.00060506 0)
(-0.0104538 -0.000637593 0)
(-0.0100953 -0.00066857 0)
(-0.00972008 -0.000697873 0)
(-0.00932931 -0.000725355 0)
(-0.00892409 -0.000750807 0)
(-0.0085057 -0.000773962 0)
(-0.00807544 -0.000794541 0)
(-0.00763474 -0.000812281 0)
(-0.00718519 -0.000826947 0)
(-0.00672859 -0.000838311 0)
(-0.00626694 -0.000846122 0)
(-0.00580237 -0.000850081 0)
(-0.00533712 -0.000849827 0)
(-0.00487356 -0.000844956 0)
(-0.00441423 -0.000835065 0)
(-0.00396189 -0.000819784 0)
(-0.00351944 -0.000798788 0)
(-0.00308987 -0.000771785 0)
(-0.00267627 -0.000738507 0)
(-0.00228186 -0.00069874 0)
(-0.00190994 -0.000652356 0)
(-0.00156381 -0.000599331 0)
(-0.00124674 -0.000539777 0)
(-0.00096181 -0.000474004 0)
(-0.00071181 -0.000402626 0)
(-0.000499022 -0.000326695 0)
(-0.000325028 -0.000247951 0)
(-0.000190398 -0.000169168 0)
(-9.43137e-05 -9.46574e-05 0)
(-3.40362e-05 -3.09288e-05 0)
(-4.57807e-06 1.25735e-05 0)
(1.68675e-06 2.24274e-05 0)
(-1.63555e-05 8.53477e-05 0)
(-6.01145e-05 8.85919e-05 0)
(-0.000142502 6.48805e-05 0)
(-0.00025099 0.000118809 0)
(-0.000388416 0.000222993 0)
(-0.000561746 0.00034956 0)
(-0.000775563 0.000479505 0)
(-0.00102903 0.000603996 0)
(-0.00132282 0.000718896 0)
(-0.00165459 0.000821028 0)
(-0.0020207 0.000910661 0)
(-0.00241814 0.000987974 0)
(-0.00284291 0.00105331 0)
(-0.00329132 0.00110789 0)
(-0.00375975 0.00115233 0)
(-0.00424447 0.00118769 0)
(-0.00474225 0.00121465 0)
(-0.00524991 0.00123401 0)
(-0.00576469 0.00124658 0)
(-0.00628394 0.00125306 0)
(-0.00680506 0.00125408 0)
(-0.00732591 0.00125006 0)
(-0.00784448 0.00124147 0)
(-0.00835885 0.00122889 0)
(-0.0088673 0.00121267 0)
(-0.00936839 0.00119305 0)
(-0.00986071 0.00117028 0)
(-0.0103429 0.00114464 0)
(-0.0108139 0.00111638 0)
(-0.0112725 0.00108565 0)
(-0.011718 0.00105261 0)
(-0.0121494 0.00101746 0)
(-0.0125658 0.000980371 0)
(-0.0129663 0.000941437 0)
(-0.0133503 0.00090068 0)
(-0.0137171 0.000858231 0)
(-0.014066 0.000814297 0)
(-0.0143962 0.000768969 0)
(-0.014707 0.00072225 0)
(-0.0149981 0.000674161 0)
(-0.0152686 0.000624741 0)
(-0.015518 0.000574067 0)
(-0.0157457 0.000522218 0)
(-0.0159514 0.000469211 0)
(-0.0161345 0.000415041 0)
(-0.0162945 0.000359773 0)
(-0.0164308 0.000303499 0)
(-0.016543 0.000246227 0)
(-0.0166307 0.000187907 0)
(-0.0166937 0.000128567 0)
(-0.0167317 6.83408e-05 0)
(-0.0167442 7.36577e-06 0)
(-0.0167309 -5.42806e-05 0)
(-0.0166915 -0.000116563 0)
(-0.016626 -0.000179447 0)
(-0.0165342 -0.000242852 0)
(-0.0164161 -0.000306612 0)
(-0.0162717 -0.000370505 0)
(-0.0161007 -0.000434337 0)
(-0.0159034 -0.000497973 0)
(-0.0156798 -0.000561278 0)
(-0.0154301 -0.000624071 0)
(-0.0151546 -0.00068613 0)
(-0.0148536 -0.000747221 0)
(-0.0145276 -0.000807112 0)
(-0.0141772 -0.000865556 0)
(-0.013803 -0.000922293 0)
(-0.0134055 -0.00097706 0)
(-0.0129857 -0.0010296 0)
(-0.0125444 -0.00107965 0)
(-0.0120828 -0.00112695 0)
(-0.0116023 -0.00117123 0)
(-0.0111041 -0.00121215 0)
(-0.0105899 -0.00124933 0)
(-0.0100612 -0.00128233 0)
(-0.00951976 -0.00131074 0)
(-0.00896764 -0.00133419 0)
(-0.00840701 -0.00135227 0)
(-0.00784031 -0.00136454 0)
(-0.00727008 -0.00137051 0)
(-0.00669904 -0.00136965 0)
(-0.00613005 -0.0013614 0)
(-0.00556624 -0.00134522 0)
(-0.00501088 -0.00132059 0)
(-0.00446739 -0.00128703 0)
(-0.0039393 -0.00124409 0)
(-0.00343025 -0.00119139 0)
(-0.00294399 -0.00112863 0)
(-0.00248436 -0.00105565 0)
(-0.0020552 -0.000972476 0)
(-0.00166021 -0.000879377 0)
(-0.00130289 -0.000776935 0)
(-0.000986358 -0.000666176 0)
(-0.000713186 -0.000548772 0)
(-0.000485198 -0.000427344 0)
(-0.000303215 -0.000305879 0)
(-0.000166711 -0.000190317 0)
(-7.34151e-05 -8.92423e-05 0)
(-1.97414e-05 -1.46147e-05 0)
(-1.06917e-06 1.74455e-05 0)
(-1.3269e-05 0.000116698 0)
(-6.03686e-05 0.0001644 0)
(-0.000163765 0.000174812 0)
(-0.000307407 0.000261486 0)
(-0.0004894 0.000404162 0)
(-0.0007154 0.000570373 0)
(-0.000985236 0.000742754 0)
(-0.00129982 0.000909734 0)
(-0.00165779 0.00106472 0)
(-0.00205708 0.0012052 0)
(-0.00249443 0.00132963 0)
(-0.0029661 0.00143789 0)
(-0.00346832 0.00153049 0)
(-0.00399693 0.00160812 0)
(-0.00454786 0.00167207 0)
(-0.00511739 0.00172319 0)
(-0.00570183 0.00176255 0)
(-0.00629758 0.00179117 0)
(-0.00690139 0.00180991 0)
(-0.00751026 0.00181986 0)
(-0.0081214 0.00182182 0)
(-0.0087323 0.0018164 0)
(-0.00934049 0.00180436 0)
(-0.00994372 0.00178636 0)
(-0.0105402 0.0017629 0)
(-0.011128 0.00173439 0)
(-0.0117056 0.00170135 0)
(-0.0122713 0.0016642 0)
(-0.0128239 0.00162318 0)
(-0.0133621 0.00157851 0)
(-0.0138848 0.00153049 0)
(-0.0143907 0.00147944 0)
(-0.014879 0.00142555 0)
(-0.0153487 0.00136893 0)
(-0.015799 0.00130971 0)
(-0.0162289 0.00124805 0)
(-0.0166376 0.00118413 0)
(-0.0170243 0.00111807 0)
(-0.0173883 0.00104991 0)
(-0.0177288 0.000979733 0)
(-0.0180452 0.000907657 0)
(-0.0183368 0.000833758 0)
(-0.0186029 0.000758028 0)
(-0.0188429 0.000680503 0)
(-0.0190564 0.000601296 0)
(-0.0192426 0.000520528 0)
(-0.0194011 0.00043828 0)
(-0.0195312 0.000354581 0)
(-0.0196327 0.000269418 0)
(-0.0197051 0.000182837 0)
(-0.0197481 9.50035e-05 0)
(-0.0197611 6.12206e-06 0)
(-0.0197438 -8.36863e-05 0)
(-0.0196961 -0.000174369 0)
(-0.0196179 -0.000265837 0)
(-0.0195088 -0.000357919 0)
(-0.0193689 -0.000450389 0)
(-0.0191981 -0.000543015 0)
(-0.0189964 -0.000635586 0)
(-0.0187638 -0.000727887 0)
(-0.0185006 -0.000819674 0)
(-0.0182069 -0.000910661 0)
(-0.0178831 -0.00100055 0)
(-0.0175296 -0.00108905 0)
(-0.0171469 -0.00117583 0)
(-0.0167358 -0.00126055 0)
(-0.0162969 -0.00134284 0)
(-0.015831 -0.00142232 0)
(-0.015339 -0.00149858 0)
(-0.0148222 -0.00157123 0)
(-0.0142819 -0.00163987 0)
(-0.0137195 -0.00170407 0)
(-0.0131367 -0.00176333 0)
(-0.0125351 -0.00181709 0)
(-0.0119168 -0.00186476 0)
(-0.0112837 -0.00190576 0)
(-0.0106384 -0.00193955 0)
(-0.00998314 -0.00196552 0)
(-0.00932087 -0.00198302 0)
(-0.00865449 -0.00199135 0)
(-0.00798712 -0.0019898 0)
(-0.00732208 -0.00197764 0)
(-0.00666291 -0.00195416 0)
(-0.00601335 -0.00191866 0)
(-0.00537729 -0.0018705 0)
(-0.00475867 -0.00180908 0)
(-0.00416158 -0.00173394 0)
(-0.00359021 -0.00164471 0)
(-0.00304885 -0.00154122 0)
(-0.00254175 -0.00142358 0)
(-0.00207299 -0.00129221 0)
(-0.00164639 -0.00114802 0)
(-0.00126537 -0.000992496 0)
(-0.000932772 -0.000827953 0)
(-0.000650769 -0.000657872 0)
(-0.000420606 -0.000487388 0)
(-0.000242344 -0.000323846 0)
(-0.000114532 -0.000177549 0)
(-3.53709e-05 -6.22872e-05 0)
(-3.85391e-06 4.14806e-06 0)
(-1.11199e-05 0.00014781 0)
(-6.35826e-05 0.000251761 0)
(-0.000185626 0.000310198 0)
(-0.000361318 0.000444194 0)
(-0.000585737 0.000631342 0)
(-0.000860571 0.000844787 0)
(-0.00118507 0.00106388 0)
(-0.00155814 0.00127676 0)
(-0.0019784 0.00147597 0)
(-0.00244286 0.00165757 0)
(-0.00294819 0.00181975 0)
(-0.00349071 0.00196181 0)
(-0.00406616 0.00208413 0)
(-0.00467013 0.00218748 0)
(-0.00529849 0.00227285 0)
(-0.00594717 0.00234146 0)
(-0.00661207 0.00239461 0)
(-0.00728948 0.00243347 0)
(-0.00797573 0.00245922 0)
(-0.00866743 0.00247303 0)
(-0.00936165 0.0024759 0)
(-0.0100555 0.00246885 0)
(-0.0107462 0.00245286 0)
(-0.0114313 0.00242866 0)
(-0.0121088 0.0023969 0)
(-0.0127765 0.0023583 0)
(-0.0134324 0.00231349 0)
(-0.0140749 0.00226297 0)
(-0.0147026 0.00220716 0)
(-0.015314 0.00214644 0)
(-0.0159075 0.00208117 0)
(-0.016482 0.00201173 0)
(-0.0170364 0.00193837 0)
(-0.0175696 0.00186124 0)
(-0.0180806 0.00178059 0)
(-0.0185684 0.00169669 0)
(-0.0190319 0.00160968 0)
(-0.0194703 0.00151962 0)
(-0.0198829 0.00142666 0)
(-0.0202687 0.00133094 0)
(-0.020627 0.00123261 0)
(-0.0209569 0.00113177 0)
(-0.0212579 0.00102845 0)
(-0.0215293 0.000922674 0)
(-0.0217704 0.000814595 0)
(-0.0219804 0.000704381 0)
(-0.0221588 0.000592135 0)
(-0.0223052 0.000477898 0)
(-0.022419 0.000361725 0)
(-0.0224997 0.000243757 0)
(-0.0225469 0.000124194 0)
(-0.0225602 3.21596e-06 0)
(-0.0225391 -0.000119044 0)
(-0.0224835 -0.000242443 0)
(-0.0223933 -0.000366792 0)
(-0.0222681 -0.00049185 0)
(-0.022108 -0.000617353 0)
(-0.0219128 -0.000743024 0)
(-0.0216826 -0.000868591 0)
(-0.0214176 -0.000993764 0)
(-0.0211178 -0.00111821 0)
(-0.0207835 -0.00124152 0)
(-0.0204153 -0.00136332 0)
(-0.0200135 -0.00148321 0)
(-0.0195788 -0.00160078 0)
(-0.019112 -0.00171558 0)
(-0.0186139 -0.0018271 0)
(-0.0180853 -0.00193479 0)
(-0.0175274 -0.00203813 0)
(-0.0169414 -0.00213659 0)
(-0.0163291 -0.00222958 0)
(-0.015692 -0.00231649 0)
(-0.0150318 -0.00239664 0)
(-0.0143505 -0.0024693 0)
(-0.0136504 -0.00253368 0)
(-0.0129338 -0.00258905 0)
(-0.0122033 -0.00263462 0)
(-0.0114617 -0.00266957 0)
(-0.0107122 -0.00269305 0)
(-0.00995799 -0.00270414 0)
(-0.00920256 -0.00270192 0)
(-0.0084496 -0.00268546 0)
(-0.00770302 -0.00265389 0)
(-0.00696694 -0.00260631 0)
(-0.00624559 -0.00254191 0)
(-0.00554335 -0.00245997 0)
(-0.00486466 -0.00235991 0)
(-0.00421409 -0.00224134 0)
(-0.00359625 -0.00210413 0)
(-0.00301574 -0.00194845 0)
(-0.002477 -0.00177496 0)
(-0.00198414 -0.00158484 0)
(-0.00154086 -0.00138002 0)
(-0.00115035 -0.00116346 0)
(-0.000815198 -0.000939443 0)
(-0.000537255 -0.000714075 0)
(-0.000317337 -0.000495852 0)
(-0.000155005 -0.000296314 0)
(-5.04868e-05 -0.000130474 0)
(-6.42694e-06 -1.72197e-05 0)
(-1.04179e-05 0.000180467 0)
(-6.94572e-05 0.000350581 0)
(-0.000209091 0.000471832 0)
(-0.000415298 0.000661333 0)
(-0.000679334 0.000903689 0)
(-0.00100021 0.00116954 0)
(-0.00137661 0.00144042 0)
(-0.00180591 0.00170298 0)
(-0.00228554 0.00194948 0)
(-0.00281229 0.00217521 0)
(-0.00338256 0.00237754 0)
(-0.00399213 0.00255573 0)
(-0.00463665 0.00270991 0)
(-0.00531168 0.00284079 0)
(-0.00601264 0.00294925 0)
(-0.00673514 0.00303678 0)
(-0.00747503 0.00310479 0)
(-0.00822824 0.00315468 0)
(-0.00899084 0.00318799 0)
(-0.00975931 0.0032059 0)
(-0.0105303 0.00320972 0)
(-0.0113006 0.00320079 0)
(-0.0120674 0.00318023 0)
(-0.0128281 0.00314898 0)
(-0.0135801 0.00310795 0)
(-0.0143212 0.00305806 0)
(-0.0150493 0.00300007 0)
(-0.0157626 0.00293453 0)
(-0.0164592 0.00286206 0)
(-0.0171377 0.00278328 0)
(-0.0177964 0.00269865 0)
(-0.0184339 0.00260852 0)
(-0.019049 0.00251319 0)
(-0.0196405 0.002413 0)
(-0.0202072 0.00230825 0)
(-0.0207479 0.00219924 0)
(-0.0212617 0.00208615 0)
(-0.0217476 0.0019691 0)
(-0.0222047 0.00184826 0)
(-0.0226319 0.00172382 0)
(-0.0230284 0.00159598 0)
(-0.0233935 0.0014648 0)
(-0.0237264 0.00133037 0)
(-0.0240263 0.00119283 0)
(-0.0242925 0.00105238 0)
(-0.0245242 0.000909149 0)
(-0.0247208 0.000763218 0)
(-0.0248818 0.000614696 0)
(-0.0250066 0.000463744 0)
(-0.0250948 0.000310573 0)
(-0.0251457 0.000155412 0)
(-0.0251589 -1.54704e-06 0)
(-0.0251341 -0.000160139 0)
(-0.0250711 -0.000320153 0)
(-0.0249697 -0.000481309 0)
(-0.0248296 -0.000643288 0)
(-0.0246506 -0.000805765 0)
(-0.0244329 -0.000968411 0)
(-0.0241765 -0.00113088 0)
(-0.0238815 -0.00129279 0)
(-0.0235481 -0.00145369 0)
(-0.0231765 -0.00161308 0)
(-0.0227674 -0.00177048 0)
(-0.0223213 -0.0019254 0)
(-0.0218388 -0.00207732 0)
(-0.0213209 -0.00222563 0)
(-0.0207684 -0.00236967 0)
(-0.0201823 -0.00250876 0)
(-0.0195639 -0.00264224 0)
(-0.0189147 -0.00276939 0)
(-0.0182364 -0.00288945 0)
(-0.0175308 -0.0030016 0)
(-0.0167998 -0.00310496 0)
(-0.0160456 -0.0031986 0)
(-0.0152705 -0.00328158 0)
(-0.0144773 -0.00335291 0)
(-0.0136689 -0.00341159 0)
(-0.0128482 -0.00345659 0)
(-0.0120187 -0.00348679 0)
(-0.0111839 -0.00350107 0)
(-0.0103476 -0.00349828 0)
(-0.00951379 -0.00347729 0)
(-0.00868669 -0.00343701 0)
(-0.00787073 -0.00337638 0)
(-0.00707047 -0.00329444 0)
(-0.00629062 -0.00319033 0)
(-0.00553593 -0.00306338 0)
(-0.0048113 -0.00291316 0)
(-0.00412166 -0.00273959 0)
(-0.00347191 -0.00254296 0)
(-0.00286675 -0.00232411 0)
(-0.00231061 -0.00208452 0)
(-0.0018075 -0.00182654 0)
(-0.00136104 -0.00155368 0)
(-0.000974323 -0.00127091 0)
(-0.000649859 -0.000985119 0)
(-0.000389355 -0.000705613 0)
(-0.000193449 -0.00044473 0)
(-6.45233e-05 -0.000218254 0)
(-8.64126e-06 -4.60521e-05 0)
(-1.08908e-05 0.000215865 0)
(-7.63658e-05 0.000462843 0)
(-0.000234816 0.000656196 0)
(-0.000469487 0.000912792 0)
(-0.000770208 0.00121724 0)
(-0.00113537 0.00154222 0)
(-0.00156068 0.00186931 0)
(-0.00204323 0.00218555 0)
(-0.00257939 0.00248247 0)
(-0.00316556 0.00275475 0)
(-0.00379744 0.00299963 0)
(-0.00447055 0.00321596 0)
(-0.00518031 0.00340367 0)
(-0.00592212 0.00356345 0)
(-0.00669121 0.00369644 0)
(-0.00748284 0.00380394 0)
(-0.00829265 0.00388763 0)
(-0.00911632 0.00394922 0)
(-0.00994986 0.00399032 0)
(-0.0107895 0.00401242 0)
(-0.0116315 0.00401717 0)
(-0.0124726 0.00400608 0)
(-0.0133097 0.00398034 0)
(-0.01414 0.00394122 0)
(-0.0149608 0.00388998 0)
(-0.0157695 0.00382764 0)
(-0.0165641 0.00375503 0)
(-0.0173425 0.00367297 0)
(-0.0181027 0.00358222 0)
(-0.0188428 0.00348352 0)
(-0.0195613 0.00337745 0)
(-0.0202568 0.00326445 0)
(-0.0209277 0.00314492 0)
(-0.0215727 0.0030193 0)
(-0.0221905 0.00288799 0)
(-0.0227799 0.00275127 0)
(-0.0233399 0.00260934 0)
(-0.0238693 0.00246247 0)
(-0.0243671 0.0023109 0)
(-0.0248323 0.00215484 0)
(-0.025264 0.00199444 0)
(-0.0256613 0.00182981 0)
(-0.0260233 0.00166113 0)
(-0.0263494 0.00148861 0)
(-0.0266384 0.00131247 0)
(-0.0268899 0.00113286 0)
(-0.0271031 0.000949885 0)
(-0.0272775 0.000763693 0)
(-0.0274124 0.000574525 0)
(-0.0275072 0.000382659 0)
(-0.0275613 0.000188357 0)
(-0.0275744 -8.15955e-06 0)
(-0.0275462 -0.000206675 0)
(-0.0274762 -0.00040689 0)
(-0.0273644 -0.000608431 0)
(-0.0272104 -0.000810915 0)
(-0.0270141 -0.00101397 0)
(-0.0267756 -0.0012172 0)
(-0.0264951 -0.00142015 0)
(-0.0261725 -0.00162231 0)
(-0.025808 -0.00182314 0)
(-0.0254022 -0.00202205 0)
(-0.0249554 -0.00221844 0)
(-0.0244686 -0.00241172 0)
(-0.0239422 -0.00260121 0)
(-0.0233773 -0.00278616 0)
(-0.0227748 -0.00296575 0)
(-0.0221359 -0.00313915 0)
(-0.021462 -0.00330554 0)
(-0.0207547 -0.00346402 0)
(-0.0200158 -0.00361363 0)
(-0.0192472 -0.00375333 0)
(-0.0184511 -0.00388203 0)
(-0.0176298 -0.0039986 0)
(-0.0167859 -0.00410188 0)
(-0.0159224 -0.00419067 0)
(-0.0150422 -0.00426374 0)
(-0.0141488 -0.00431978 0)
(-0.0132456 -0.00435745 0)
(-0.0123365 -0.00437538 0)
(-0.0114255 -0.00437219 0)
(-0.0105169 -0.00434655 0)
(-0.0096152 -0.00429714 0)
(-0.00872513 -0.00422275 0)
(-0.0078515 -0.00412224 0)
(-0.00699927 -0.00399464 0)
(-0.0061735 -0.00383921 0)
(-0.00537938 -0.00365548 0)
(-0.00462214 -0.00344339 0)
(-0.00390694 -0.00320336 0)
(-0.00323875 -0.00293639 0)
(-0.00262231 -0.00264425 0)
(-0.00206201 -0.00232964 0)
(-0.00156191 -0.00199656 0)
(-0.00112567 -0.00165052 0)
(-0.000756528 -0.00129893 0)
(-0.000457105 -0.000951635 0)
(-0.000229145 -0.000621362 0)
(-7.72156e-05 -0.000324369 0)
(-1.04677e-05 -8.162e-05 0)
(-1.14298e-05 0.000255725 0)
(-8.52096e-05 0.000587661 0)
(-0.000261076 0.000863808 0)
(-0.000522601 0.00119632 0)
(-0.000859068 0.00156981 0)
(-0.00126537 0.00195999 0)
(-0.00173717 0.00234818 0)
(-0.00227011 0.0027217 0)
(-0.00286006 0.0030718 0)
(-0.00350251 0.00339314 0)
(-0.0041928 0.00368264 0)
(-0.0049261 0.00393882 0)
(-0.00569753 0.00416156 0)
(-0.0065022 0.00435147 0)
(-0.00733522 0.00450988 0)
(-0.00819167 0.00463825 0)
(-0.0090668 0.00473833 0)
(-0.00995628 0.00481199 0)
(-0.0108559 0.004861 0)
(-0.0117616 0.00488736 0)
(-0.0126695 0.00489286 0)
(-0.0135761 0.00487909 0)
(-0.0144784 0.0048476 0)
(-0.015373 0.00479995 0)
(-0.0162572 0.00473753 0)
(-0.0171285 0.00466154 0)
(-0.0179845 0.00457301 0)
(-0.0188229 0.00447298 0)
(-0.0196415 0.00436242 0)
(-0.0204385 0.00424212 0)
(-0.0212123 0.00411271 0)
(-0.021961 0.0039748 0)
(-0.0226833 0.00382898 0)
(-0.0233776 0.00367576 0)
(-0.0240424 0.00351556 0)
(-0.0246767 0.00334871 0)
(-0.0252791 0.00317549 0)
(-0.0258486 0.00299623 0)
(-0.0263838 0.00281126 0)
(-0.0268839 0.00262081 0)
(-0.0273479 0.00242504 0)
(-0.0277748 0.00222413 0)
(-0.0281637 0.00201832 0)
(-0.0285136 0.00180788 0)
(-0.0288238 0.00159304 0)
(-0.0290934 0.00137395 0)
(-0.0293219 0.00115079 0)
(-0.0295086 0.000923794 0)
(-0.0296526 0.000693271 0)
(-0.0297535 0.000459522 0)
(-0.0298106 0.000222828 0)
(-0.0298236 -1.65396e-05 0)
(-0.0297921 -0.00025827 0)
(-0.0297158 -0.000501971 0)
(-0.0295943 -0.000747191 0)
(-0.0294275 -0.000993491 0)
(-0.0292153 -0.00124044 0)
(-0.0289577 -0.00148754 0)
(-0.0286549 -0.00173423 0)
(-0.0283068 -0.00197988 0)
(-0.0279139 -0.00222384 0)
(-0.0274764 -0.00246543 0)
(-0.0269952 -0.00270394 0)
(-0.0264708 -0.00293863 0)
(-0.025904 -0.00316866 0)
(-0.0252958 -0.00339312 0)
(-0.0246473 -0.00361105 0)
(-0.0239597 -0.00382145 0)
(-0.0232347 -0.00402331 0)
(-0.0224738 -0.00421555 0)
(-0.021679 -0.00439698 0)
(-0.0208524 -0.00456636 0)
(-0.0199963 -0.00472238 0)
(-0.0191131 -0.00486369 0)
(-0.0182056 -0.0049889 0)
(-0.0172771 -0.00509659 0)
(-0.0163307 -0.00518524 0)
(-0.0153699 -0.0052533 0)
(-0.0143984 -0.00529918 0)
(-0.0134204 -0.00532125 0)
(-0.0124401 -0.00531792 0)
(-0.011462 -0.00528762 0)
(-0.0104909 -0.00522885 0)
(-0.00953165 -0.00514018 0)
(-0.00858942 -0.00502034 0)
(-0.0076694 -0.00486822 0)
(-0.00677689 -0.004683 0)
(-0.00591736 -0.00446421 0)
(-0.00509629 -0.0042118 0)
(-0.00431912 -0.00392626 0)
(-0.00359112 -0.00360874 0)
(-0.00291733 -0.00326126 0)
(-0.00230256 -0.00288685 0)
(-0.00175135 -0.00248985 0)
(-0.00126795 -0.00207615 0)
(-0.00085633 -0.00165353 0)
(-0.000520022 -0.00123206 0)
(-0.000261901 -0.000824589 0)
(-8.8588e-05 -0.000447556 0)
(-1.20059e-05 -0.000123217 0)
(-1.24665e-05 0.00029955 0)
(-9.40794e-05 0.000725637 0)
(-0.000287231 0.00109447 0)
(-0.000575093 0.00150952 0)
(-0.000944574 0.0019598 0)
(-0.00138996 0.00242046 0)
(-0.00190568 0.00287428 0)
(-0.00248655 0.00330851 0)
(-0.00312735 0.00371471 0)
(-0.00382309 0.00408738 0)
(-0.00456875 0.00442328 0)
(-0.00535906 0.00472088 0)
(-0.00618882 0.00497989 0)
(-0.00705284 0.00520105 0)
(-0.00794595 0.00538565 0)
(-0.00886316 0.00553551 0)
(-0.0097996 0.00565239 0)
(-0.0107507 0.00573832 0)
(-0.0117119 0.00579543 0)
(-0.0126791 0.00582597 0)
(-0.0136484 0.00583186 0)
(-0.014616 0.00581492 0)
(-0.0155787 0.0057771 0)
(-0.016533 0.00572019 0)
(-0.0174761 0.00564566 0)
(-0.0184052 0.00555488 0)
(-0.0193179 0.0054492 0)
(-0.0202118 0.0053299 0)
(-0.0210845 0.00519802 0)
(-0.0219341 0.00505445 0)
(-0.0227588 0.00489998 0)
(-0.0235568 0.00473537 0)
(-0.0243264 0.00456133 0)
(-0.0250661 0.00437845 0)
(-0.0257744 0.0041872 0)
(-0.0264501 0.00398797 0)
(-0.0270917 0.00378116 0)
(-0.0276981 0.00356719 0)
(-0.028268 0.00334639 0)
(-0.0288003 0.003119 0)
(-0.0292941 0.00288526 0)
(-0.0297484 0.00264543 0)
(-0.030162 0.00239985 0)
(-0.0305341 0.00214879 0)
(-0.0308637 0.00189246 0)
(-0.0311502 0.00163106 0)
(-0.0313929 0.00136485 0)
(-0.0315908 0.00109417 0)
(-0.0317434 0.000819378 0)
(-0.0318499 0.000540781 0)
(-0.0319098 0.000258696 0)
(-0.0319229 -2.65301e-05 0)
(-0.0318885 -0.000314488 0)
(-0.0318063 -0.000604696 0)
(-0.031676 -0.000896639 0)