/*--------------------------------*- C++ -*----------------------------------*\
| =========                 |                                                 |
| \\      /  F ield         | OpenFOAM: The Open Source CFD Toolbox           |
|  \\    /   O peration     | Version:  2512                                  |
|   \\  /    A nd           | Website:  www.openfoam.com                      |
|    \\/     M anipulation  |                                                 |
\*---------------------------------------------------------------------------*/
FoamFile
{
    version     2.0;
    format      ascii;
    arch        "LSB;label=32;scalar=64";
    class       volVectorField;
    location    "0.1";
    object      U;
}
// * * * * * * * * * * * * * * * * * * * * * * * * * * * * * * * * * * * * * //

dimensions      [0 1 -1 0 0 0 0];

internalField   nonuniform List<vector> 
10000
(
(2.12082e-06 -4.27312e-06 0)
(1.14606e-05 -6.42469e-06 0)
(1.93932e-05 -4.36015e-06 0)
(2.25602e-05 -1.69296e-06 0)
(1.71425e-05 1.26873e-06 0)
(3.46882e-06 4.14946e-06 0)
(-1.82792e-05 6.80684e-06 0)
(-4.76227e-05 9.19311e-06 0)
(-8.38911e-05 1.1301e-05 0)
(-0.000126366 1.31446e-05 0)
(-0.00017433 1.47389e-05 0)
(-0.000227071 1.60963e-05 0)
(-0.000283904 1.72329e-05 0)
(-0.000344193 1.81667e-05 0)
(-0.000407344 1.89173e-05 0)
(-0.000472809 1.95082e-05 0)
(-0.000540085 1.99598e-05 0)
(-0.000608717 2.02849e-05 0)
(-0.000678291 2.04912e-05 0)
(-0.000748431 2.05877e-05 0)
(-0.000818798 2.05875e-05 0)
(-0.000889088 2.05044e-05 0)
(-0.000959031 2.03506e-05 0)
(-0.00102838 2.0135e-05 0)
(-0.00109693 1.98621e-05 0)
(-0.00116446 1.95348e-05 0)
(-0.00123082 1.91573e-05 0)
(-0.00129582 1.87355e-05 0)
(-0.00135934 1.82765e-05 0)
(-0.00142123 1.77864e-05 0)
(-0.00148138 1.72663e-05 0)
(-0.00153966 1.67142e-05 0)
(-0.00159598 1.61298e-05 0)
(-0.00165023 1.55159e-05 0)
(-0.00170232 1.48768e-05 0)
(-0.00175216 1.42154e-05 0)
(-0.00179965 1.35312e-05 0)
(-0.00184471 1.28218e-05 0)
(-0.00188726 1.20857e-05 0)
(-0.00192722 1.13248e-05 0)
(-0.0019645 1.05427e-05 0)
(-0.00199904 9.74098e-06 0)
(-0.00203075 8.91804e-06 0)
(-0.00205956 8.07142e-06 0)
(-0.0020854 7.20085e-06 0)
(-0.0021082 6.3088e-06 0)
(-0.00212789 5.39798e-06 0)
(-0.0021444 4.46919e-06 0)
(-0.00215767 3.52156e-06 0)
(-0.00216764 2.55425e-06 0)
(-0.00217425 1.56808e-06 0)
(-0.00217745 5.65379e-07 0)
(-0.00217718 -4.51487e-07 0)
(-0.00217341 -1.48105e-06 0)
(-0.00216609 -2.5227e-06 0)
(-0.00215519 -3.5757e-06 0)
(-0.00214069 -4.63813e-06 0)
(-0.00212255 -5.70709e-06 0)
(-0.00210077 -6.77971e-06 0)
(-0.00207534 -7.85352e-06 0)
(-0.00204627 -8.92631e-06 0)
(-0.00201356 -9.9955e-06 0)
(-0.00197725 -1.10578e-05 0)
(-0.00193736 -1.21093e-05 0)
(-0.00189395 -1.31461e-05 0)
(-0.00184708 -1.4164e-05 0)
(-0.00179682 -1.51589e-05 0)
(-0.00174326 -1.61261e-05 0)
(-0.0016865 -1.70609e-05 0)
(-0.00162668 -1.79577e-05 0)
(-0.00156393 -1.88106e-05 0)
(-0.00149842 -1.96133e-05 0)
(-0.00143033 -2.03593e-05 0)
(-0.00135986 -2.1042e-05 0)
(-0.00128725 -2.16543e-05 0)
(-0.00121275 -2.21884e-05 0)
(-0.00113665 -2.26355e-05 0)
(-0.00105924 -2.29868e-05 0)
(-0.000980876 -2.32332e-05 0)
(-0.000901917 -2.33652e-05 0)
(-0.000822765 -2.33733e-05 0)
(-0.000743851 -2.3247e-05 0)
(-0.00066564 -2.29753e-05 0)
(-0.000588631 -2.25468e-05 0)
(-0.000513357 -2.19499e-05 0)
(-0.000440386 -2.11726e-05 0)
(-0.000370319 -2.02027e-05 0)
(-0.000303789 -1.90273e-05 0)
(-0.000241462 -1.76338e-05 0)
(-0.000184029 -1.60092e-05 0)
(-0.000132203 -1.41415e-05 0)
(-8.67044e-05 -1.20211e-05 0)
(-4.825e-05 -9.6426e-06 0)
(-1.75182e-05 -7.01122e-06 0)
(4.90308e-06 -4.15654e-06 0)
(1.86182e-05 -1.15834e-06 0)
(2.35778e-05 1.79756e-06 0)
(2.04639e-05 4.27436e-06 0)
(1.18631e-05 5.35731e-06 0)
(3.34051e-06 3.34259e-06 0)
(3.55741e-06 -1.08571e-05 0)
(1.32548e-05 -1.64818e-05 0)
(1.85098e-05 -8.20633e-06 0)
(9.66653e-06 4.93516e-06 0)
(-1.77254e-05 2.02541e-05 0)
(-6.50161e-05 3.59473e-05 0)
(-0.000132338 5.10707e-05 0)
(-0.000218907 6.51518e-05 0)
(-0.000323439 7.7963e-05 0)
(-0.00044437 8.94058e-05 0)
(-0.000579995 9.94768e-05 0)
(-0.000728576 0.000108211 0)
(-0.000888398 0.000115668 0)
(-0.00105781 0.000121919 0)
(-0.00123525 0.000127047 0)
(-0.00141924 0.000131145 0)
(-0.00160844 0.000134304 0)
(-0.00180158 0.000136606 0)
(-0.00199752 0.000138129 0)
(-0.0021952 0.000138944 0)
(-0.00239367 0.000139123 0)
(-0.00259206 0.000138728 0)
(-0.00278961 0.000137819 0)
(-0.0029856 0.000136451 0)
(-0.00317939 0.000134671 0)
(-0.00337043 0.000132519 0)
(-0.00355817 0.000130027 0)
(-0.00374215 0.000127225 0)
(-0.00392194 0.000124143 0)
(-0.00409715 0.000120808 0)
(-0.00426741 0.000117239 0)
(-0.00443238 0.00011345 0)
(-0.00459176 0.000109452 0)
(-0.00474524 0.000105255 0)
(-0.00489255 0.000100872 0)
(-0.00503342 9.63113e-05 0)
(-0.00516759 9.15808e-05 0)
(-0.00529483 8.66832e-05 0)
(-0.00541488 8.16208e-05 0)
(-0.00552753 7.6398e-05 0)
(-0.00563255 7.10211e-05 0)
(-0.00572971 6.5495e-05 0)
(-0.00581882 5.98222e-05 0)
(-0.00589965 5.4004e-05 0)
(-0.00597202 4.80429e-05 0)
(-0.00603572 4.19439e-05 0)
(-0.00609056 3.57129e-05 0)
(-0.00613637 2.93556e-05 0)
(-0.00617298 2.28769e-05 0)
(-0.00620021 1.6282e-05 0)
(-0.00621791 9.57707e-06 0)
(-0.00622595 2.77029e-06 0)
(-0.00622418 -4.12859e-06 0)
(-0.0062125 -1.11093e-05 0)
(-0.0061908 -1.81611e-05 0)
(-0.00615899 -2.52728e-05 0)
(-0.006117 -3.2432e-05 0)
(-0.00606479 -3.96242e-05 0)
(-0.00600233 -4.68334e-05 0)
(-0.00592962 -5.40423e-05 0)
(-0.00584667 -6.12324e-05 0)
(-0.00575354 -6.8384e-05 0)
(-0.0056503 -7.54755e-05 0)
(-0.00553707 -8.24839e-05 0)
(-0.00541398 -8.93838e-05 0)
(-0.00528123 -9.61481e-05 0)
(-0.00513903 -0.000102747 0)
(-0.00498764 -0.00010915 0)
(-0.00482738 -0.000115324 0)
(-0.00465859 -0.000121232 0)
(-0.0044817 -0.000126838 0)
(-0.00429716 -0.0001321 0)
(-0.00410551 -0.000136976 0)
(-0.00390731 -0.000141421 0)
(-0.00370324 -0.000145385 0)
(-0.003494 -0.000148819 0)
(-0.00328038 -0.000151669 0)
(-0.00306326 -0.00015388 0)
(-0.00284358 -0.000155392 0)
(-0.00262236 -0.000156146 0)
(-0.00240073 -0.00015608 0)
(-0.00217987 -0.000155131 0)
(-0.00196106 -0.000153232 0)
(-0.00174568 -0.000150318 0)
(-0.00153519 -0.000146322 0)
(-0.00133111 -0.000141179 0)
(-0.00113506 -0.000134826 0)
(-0.000948737 -0.000127205 0)
(-0.000773871 -0.000118264 0)
(-0.000612249 -0.000107964 0)
(-0.000465661 -9.62828e-05 0)
(-0.00033587 -8.32303e-05 0)
(-0.000224539 -6.88673e-05 0)
(-0.00013314 -5.33416e-05 0)
(-6.27895e-05 -3.69525e-05 0)
(-1.40013e-05 -2.02672e-05 0)
(1.36307e-05 -4.33197e-06 0)
(2.2071e-05 8.96968e-06 0)
(1.62756e-05 1.6284e-05 0)
(5.34253e-06 1.18497e-05 0)
(3.3819e-06 -1.84099e-05 0)
(6.87852e-06 -2.01071e-05 0)
(-2.83251e-06 1.27766e-06 0)
(-3.39917e-05 3.46058e-05 0)
(-9.1743e-05 7.34737e-05 0)
(-0.00017824 0.000113915 0)
(-0.000293821 0.000153575 0)
(-0.000437671 0.000191067 0)
(-0.000608191 0.000225609 0)
(-0.000803296 0.000256818 0)
(-0.00102064 0.000284544 0)
(-0.00125778 0.000308789 0)
(-0.00151221 0.00032965 0)
(-0.00178151 0.000347279 0)
(-0.00206334 0.00036186 0)
(-0.00235548 0.000373604 0)
(-0.00265585 0.000382726 0)
(-0.0029625 0.00038944 0)
(-0.00327367 0.000393952 0)
(-0.0035877 0.000396464 0)
(-0.00390309 0.000397161 0)
(-0.00421846 0.000396215 0)
(-0.00453259 0.000393783 0)
(-0.00484433 0.000390013 0)
(-0.00515267 0.000385035 0)
(-0.00545668 0.000378968 0)
(-0.0057555 0.000371911 0)
(-0.00604838 0.000363951 0)
(-0.0063346 0.000355167 0)
(-0.00661353 0.000345629 0)
(-0.00688458 0.000335394 0)
(-0.00714718 0.000324512 0)
(-0.00740083 0.000313021 0)
(-0.00764506 0.000300954 0)
(-0.00787939 0.000288342 0)
(-0.00810341 0.00027521 0)
(-0.0083167 0.000261579 0)
(-0.00851886 0.000247466 0)
(-0.00870952 0.000232884 0)
(-0.0088883 0.000217847 0)
(-0.00905485 0.000202366 0)
(-0.00920882 0.000186456 0)
(-0.00934988 0.000170126 0)
(-0.0094777 0.000153388 0)
(-0.00959197 0.000136252 0)
(-0.00969238 0.000118731 0)
(-0.00977863 0.00010084 0)
(-0.00985046 8.25933e-05 0)
(-0.00990758 6.40088e-05 0)
(-0.00994975 4.51049e-05 0)
(-0.00997674 2.59019e-05 0)
(-0.00998832 6.42282e-06 0)
(-0.00998429 -1.33062e-05 0)
(-0.00996449 -3.32566e-05 0)
(-0.00992876 -5.33966e-05 0)
(-0.00987698 -7.36919e-05 0)
(-0.00980904 -9.41051e-05 0)
(-0.00972489 -0.000114596 0)
(-0.0096245 -0.000135119 0)
(-0.00950787 -0.000155627 0)
(-0.00937505 -0.000176066 0)
(-0.00922612 -0.000196379 0)
(-0.00906123 -0.000216505 0)
(-0.00888056 -0.000236378 0)
(-0.00868435 -0.000255927 0)
(-0.00847291 -0.000275074 0)
(-0.00824659 -0.000293738 0)
(-0.00800582 -0.000311829 0)
(-0.0077511 -0.000329255 0)
(-0.00748302 -0.000345914 0)
(-0.00720222 -0.000361699 0)
(-0.00690944 -0.000376496 0)
(-0.00660554 -0.000390186 0)
(-0.00629143 -0.000402639 0)
(-0.00596816 -0.000413721 0)
(-0.00563685 -0.000423291 0)
(-0.00529878 -0.0004312 0)
(-0.00495529 -0.000437293 0)
(-0.00460788 -0.000441412 0)
(-0.00425817 -0.000443389 0)
(-0.00390788 -0.000443056 0)
(-0.00355889 -0.000440241 0)
(-0.0032132 -0.000434768 0)
(-0.0028729 -0.000426465 0)
(-0.00254026 -0.000415161 0)
(-0.00221762 -0.000400694 0)
(-0.00190744 -0.000382914 0)
(-0.00161226 -0.00036169 0)
(-0.00133467 -0.000336922 0)
(-0.00107732 -0.000308555 0)
(-0.000842788 -0.0002766 0)
(-0.000633582 -0.000241174 0)
(-0.000451996 -0.000202553 0)
(-0.000299973 -0.000161261 0)
(-0.000178886 -0.000118214 0)
(-8.92377e-05 -7.49572e-05 0)
(-3.02661e-05 -3.40465e-05 0)
(6.48374e-07 4.50504e-07 0)
(9.04928e-06 2.20942e-05 0)
(4.27147e-06 2.04379e-05 0)
(1.28022e-06 -1.99923e-05 0)
(-5.51688e-06 -1.02304e-05 0)
(-3.56018e-05 3.27542e-05 0)
(-9.51848e-05 9.4171e-05 0)
(-0.000188683 0.00016464 0)
(-0.000318218 0.000238088 0)
(-0.000484131 0.000310551 0)
(-0.000685484 0.000379549 0)
(-0.000920431 0.000443592 0)
(-0.00118654 0.000501848 0)
(-0.00148102 0.000553918 0)
(-0.00180089 0.000599708 0)
(-0.00214309 0.00063931 0)
(-0.00250459 0.000672942 0)
(-0.00288245 0.000700902 0)
(-0.00327383 0.000723535 0)
(-0.00367606 0.000741209 0)
(-0.00408663 0.000754299 0)
(-0.00450322 0.000763178 0)
(-0.00492366 0.000768211 0)
(-0.00534598 0.000769742 0)
(-0.00576835 0.000768089 0)
(-0.00618912 0.000763548 0)
(-0.00660676 0.000756392 0)
(-0.00701991 0.000746868 0)
(-0.0074273 0.0007352 0)
(-0.00782779 0.000721582 0)
(-0.00822033 0.000706188 0)
(-0.00860398 0.000689169 0)
(-0.00897783 0.000670656 0)
(-0.0093411 0.000650763 0)
(-0.00969301 0.000629586 0)
(-0.0100329 0.000607209 0)
(-0.0103601 0.000583701 0)
(-0.0106739 0.000559121 0)
(-0.0109738 0.000533518 0)
(-0.0112593 0.000506936 0)
(-0.0115298 0.00047941 0)
(-0.0117847 0.000450972 0)
(-0.0120237 0.000421653 0)
(-0.0122461 0.000391475 0)
(-0.0124516 0.000360463 0)
(-0.0126397 0.000328642 0)
(-0.0128099 0.000296035 0)
(-0.0129619 0.000262668 0)
(-0.0130953 0.000228566 0)
(-0.0132096 0.000193757 0)
(-0.0133046 0.000158273 0)
(-0.0133797 0.000122148 0)
(-0.0134348 8.54195e-05 0)
(-0.0134696 4.81295e-05 0)
(-0.0134836 1.03238e-05 0)
(-0.0134768 -2.7947e-05 0)
(-0.0134488 -6.66269e-05 0)
(-0.0133995 -0.000105654 0)
(-0.0133287 -0.000144962 0)
(-0.0132363 -0.000184477 0)
(-0.0131223 -0.000224119 0)
(-0.0129866 -0.000263802 0)
(-0.0128292 -0.000303433 0)
(-0.0126503 -0.000342909 0)
(-0.0124498 -0.00038212 0)
(-0.0122282 -0.000420948 0)
(-0.0119855 -0.000459264 0)
(-0.0117222 -0.000496931 0)
(-0.0114386 -0.000533801 0)
(-0.0111353 -0.000569717 0)
(-0.0108128 -0.000604509 0)
(-0.0104718 -0.000637994 0)
(-0.0101132 -0.000669981 0)
(-0.00973769 -0.000700264 0)
(-0.00934639 -0.000728625 0)
(-0.00894039 -0.000754833 0)
(-0.00852094 -0.000778645 0)
(-0.00808943 -0.000799802 0)
(-0.00764736 -0.000818038 0)
(-0.00719641 -0.00083307 0)
(-0.00673839 -0.000844606 0)
(-0.00627526 -0.000852346 0)
(-0.00580915 -0.00085598 0)
(-0.00534236 -0.00085519 0)
(-0.00487732 -0.00084966 0)
(-0.00441663 -0.00083907 0)
(-0.00396307 -0.000823107 0)
(-0.00351952 -0.000801471 0)
(-0.00308903 -0.00077388 0)
(-0.00267473 -0.000740084 0)
(-0.00227986 -0.000699879 0)
(-0.0019077 -0.000653131 0)
(-0.00156153 -0.000599802 0)
(-0.00124454 -0.000539997 0)
(-0.000959771 -0.000474029 0)
(-0.000709959 -0.000402513 0)
(-0.000497368 -0.000326515 0)
(-0.000323567 -0.000247763 0)
(-0.000189126 -0.000168986 0)
(-9.32297e-05 -9.44013e-05 0)
(-3.31768e-05 -3.03261e-05 0)
(-3.97354e-06 1.38927e-05 0)
(1.84839e-06 2.36299e-05 0)
(-1.34246e-06 -1.47917e-05 0)
(-2.03133e-05 1.75639e-05 0)
(-7.40682e-05 9.09098e-05 0)
(-0.000165708 0.000187847 0)
(-0.00029814 0.000296807 0)
(-0.000473066 0.000409815 0)
(-0.00069052 0.000521434 0)
(-0.000949283 0.000628093 0)
(-0.00124725 0.000727531 0)
(-0.0015817 0.000818399 0)
(-0.00194949 0.000899989 0)
(-0.00234722 0.000972043 0)
(-0.00277142 0.00103461 0)
(-0.00321858 0.00108795 0)
(-0.00368527 0.00113245 0)
(-0.00416817 0.00116861 0)
(-0.00466414 0.00119696 0)
(-0.00517018 0.00121806 0)
(-0.00568351 0.00123245 0)
(-0.00620153 0.0012407 0)
(-0.00672183 0.00124332 0)
(-0.00724222 0.00124081 0)
(-0.00776065 0.00123365 0)
(-0.00827528 0.00122224 0)
(-0.00878439 0.00120699 0)
(-0.00928644 0.00118824 0)
(-0.00978 0.00116631 0)
(-0.0102638 0.00114147 0)
(-0.0107366 0.00111397 0)
(-0.0111973 0.00108402 0)
(-0.011645 0.00105181 0)
(-0.0120786 0.0010175 0)
(-0.0124973 0.00098121 0)
(-0.0129003 0.000943074 0)
(-0.0132867 0.000903185 0)
(-0.013656 0.000861629 0)
(-0.0140073 0.000818476 0)
(-0.01434 0.000773789 0)
(-0.0146535 0.000727623 0)
(-0.0149471 0.000680029 0)
(-0.0152204 0.000631051 0)
(-0.0154726 0.000580732 0)
(-0.0157033 0.000529112 0)
(-0.0159119 0.000476231 0)
(-0.0160979 0.000422133 0)
(-0.0162609 0.000366864 0)
(-0.0164003 0.000310472 0)
(-0.0165158 0.000253009 0)
(-0.0166068 0.000194531 0)
(-0.0166731 0.000135101 0)
(-0.0167143 7.4787e-05 0)
(-0.01673 1.36667e-05 0)
(-0.0167199 -4.81771e-05 0)
(-0.0166838 -0.000110653 0)
(-0.0166214 -0.000173662 0)
(-0.0165326 -0.000237096 0)
(-0.0164173 -0.000300834 0)
(-0.0162754 -0.000364749 0)
(-0.0161069 -0.000428699 0)
(-0.0159117 -0.000492534 0)
(-0.0156901 -0.000556089 0)
(-0.0154422 -0.000619186 0)
(-0.0151682 -0.000681636 0)
(-0.0148685 -0.000743232 0)
(-0.0145436 -0.000803754 0)
(-0.0141939 -0.000862963 0)
(-0.0138201 -0.000920607 0)
(-0.0134229 -0.000976414 0)
(-0.0130031 -0.00103009 0)
(-0.0125618 -0.00108134 0)
(-0.0120999 -0.00112982 0)
(-0.0116188 -0.00117518 0)
(-0.0111198 -0.00121707 0)
(-0.0106045 -0.00125509 0)
(-0.0100746 -0.00128884 0)
(-0.00953181 -0.00131788 0)
(-0.0089783 -0.00134178 0)
(-0.00841623 -0.00136007 0)
(-0.007848 -0.00137229 0)
(-0.00727618 -0.00137795 0)
(-0.00670354 -0.00137655 0)
(-0.00613302 -0.00136762 0)
(-0.00556774 -0.00135065 0)
(-0.00501101 -0.00132518 0)
(-0.00446629 -0.00129077 0)
(-0.00393716 -0.001247 0)
(-0.00342733 -0.00119353 0)
(-0.00294059 -0.00113009 0)
(-0.00248076 -0.00105654 0)
(-0.00205161 -0.0009729 0)
(-0.00165682 -0.000879418 0)
(-0.00129982 -0.000776678 0)
(-0.000983695 -0.000665724 0)
(-0.000710984 -0.000548248 0)
(-0.000483484 -0.000426868 0)
(-0.000301984 -0.000305518 0)
(-0.000165911 -0.000189991 0)
(-7.29398e-05 -8.85914e-05 0)
(-1.94257e-05 -1.3061e-05 0)
(-1.01434e-06 1.89466e-05 0)
(-4.06275e-06 -1.39814e-06 0)
(-3.58321e-05 6.52451e-05 0)
(-0.000114656 0.00017806 0)
(-0.00023998 0.000318077 0)
(-0.000412863 0.000472062 0)
(-0.000634232 0.000630543 0)
(-0.000903558 0.000786827 0)
(-0.0012192 0.000936338 0)
(-0.00157871 0.00107606 0)
(-0.00197907 0.00120413 0)
(-0.0024168 0.00131949 0)
(-0.0028882 0.00142169 0)
(-0.00338941 0.00151072 0)
(-0.00391658 0.00158684 0)
(-0.00446587 0.00165054 0)
(-0.00503358 0.00170245 0)
(-0.00561616 0.00174325 0)
(-0.00621023 0.0017737 0)
(-0.00681262 0.00179455 0)
(-0.00742034 0.00180657 0)
(-0.00803066 0.00181046 0)
(-0.008641 0.00180693 0)
(-0.00924904 0.00179662 0)
(-0.00985258 0.00178015 0)
(-0.0104497 0.00175805 0)
(-0.0110385 0.00173084 0)
(-0.0116173 0.00169895 0)
(-0.0121847 0.00166279 0)
(-0.0127391 0.00162272 0)
(-0.0132794 0.00157904 0)
(-0.0138043 0.00153203 0)
(-0.0143126 0.00148192 0)
(-0.0148034 0.0014289 0)
(-0.0152757 0.00137316 0)
(-0.0157285 0.00131485 0)
(-0.016161 0.00125408 0)
(-0.0165724 0.00119098 0)
(-0.0169619 0.00112563 0)
(-0.0173287 0.00105812 0)
(-0.0176722 0.00098853 0)
(-0.0179916 0.000916925 0)
(-0.0182862 0.000843373 0)
(-0.0185555 0.000767938 0)
(-0.0187988 0.000690681 0)
(-0.0190155 0.000611669 0)
(-0.0192051 0.000530971 0)
(-0.019367 0.00044866 0)
(-0.0195008 0.000364816 0)
(-0.0196059 0.000279523 0)
(-0.0196819 0.000192874 0)
(-0.0197284 0.00010497 0)
(-0.0197451 1.59253e-05 0)
(-0.0197315 -7.41383e-05 0)
(-0.0196874 -0.000165086 0)
(-0.0196126 -0.000256773 0)
(-0.0195068 -0.000349039 0)
(-0.0193701 -0.000441712 0)
(-0.0192021 -0.000534603 0)
(-0.0190031 -0.000627508 0)
(-0.018773 -0.000720206 0)
(-0.0185119 -0.000812458 0)
(-0.0182202 -0.000904007 0)
(-0.0178981 -0.000994576 0)
(-0.0175461 -0.00108387 0)
(-0.0171646 -0.00117156 0)
(-0.0167542 -0.00125732 0)
(-0.0163158 -0.00134076 0)
(-0.0158502 -0.00142151 0)
(-0.0153583 -0.00149913 0)
(-0.0148414 -0.0015732 0)
(-0.0143007 -0.00164322 0)
(-0.0137376 -0.00170871 0)
(-0.0131538 -0.00176914 0)
(-0.0125511 -0.00182394 0)
(-0.0119314 -0.00187254 0)
(-0.0112969 -0.00191434 0)
(-0.01065 -0.00194868 0)
(-0.00999313 -0.00197494 0)
(-0.00932915 -0.00199243 0)
(-0.008661 -0.00200047 0)
(-0.00799186 -0.00199839 0)
(-0.00732509 -0.00198549 0)
(-0.00666427 -0.00196111 0)
(-0.00601316 -0.0019246 0)
(-0.00537566 -0.00187537 0)
(-0.00475584 -0.00181288 0)
(-0.00415787 -0.00173669 0)
(-0.00358598 -0.0016465 0)
(-0.00304442 -0.00154216 0)
(-0.00253737 -0.00142379 0)
(-0.00206888 -0.00129184 0)
(-0.00164272 -0.0011472 0)
(-0.00126228 -0.000991389 0)
(-0.000930406 -0.000826753 0)
(-0.000649186 -0.000656788 0)
(-0.000419795 -0.00048655 0)
(-0.000242161 -0.000323211 0)
(-0.000114668 -0.000176692 0)
(-3.54549e-05 -6.05154e-05 0)
(-3.87474e-06 5.81311e-06 0)
(-6.67729e-06 2.01205e-05 0)
(-5.11324e-05 0.000133163 0)
(-0.000155135 0.000294954 0)
(-0.000314409 0.000485685 0)
(-0.000527978 0.000691065 0)
(-0.000795767 0.000900534 0)
(-0.00111652 0.0011064 0)
(-0.00148802 0.00130324 0)
(-0.00190741 0.00148738 0)
(-0.00237129 0.00165646 0)
(-0.00287589 0.00180908 0)
(-0.0034172 0.00194461 0)
(-0.00399105 0.00206293 0)
(-0.00459326 0.00216434 0)
(-0.00521969 0.0022494 0)
(-0.00586632 0.00231884 0)
(-0.00652924 0.00237353 0)
(-0.00720477 0.00241442 0)
(-0.00788939 0.00244247 0)
(-0.00857984 0.00245865 0)
(-0.00927305 0.00246389 0)
(-0.00996616 0.0024591 0)
(-0.0106566 0.00244513 0)
(-0.0113418 0.00242278 0)
(-0.0120196 0.00239278 0)
(-0.012688 0.00235579 0)
(-0.0133451 0.00231242 0)
(-0.0139891 0.0022632 0)
(-0.0146184 0.00220861 0)
(-0.0152315 0.00214907 0)
(-0.0158271 0.00208495 0)
(-0.0164039 0.00201657 0)
(-0.0169607 0.00194421 0)
(-0.0174964 0.00186811 0)
(-0.0180099 0.00178847 0)
(-0.0185002 0.00170548 0)
(-0.0189665 0.00161929 0)
(-0.0194078 0.00153003 0)
(-0.0198233 0.00143783 0)
(-0.0202121 0.00134279 0)
(-0.0205735 0.00124502 0)
(-0.0209067 0.00114461 0)
(-0.021211 0.00104164 0)
(-0.0214857 0.000936215 0)
(-0.0217302 0.000828425 0)
(-0.0219438 0.000718365 0)
(-0.022126 0.00060614 0)
(-0.0222761 0.000491859 0)
(-0.0223937 0.000375641 0)
(-0.0224782 0.000257616 0)
(-0.0225292 0.000137925 0)
(-0.0225463 1.67215e-05 0)
(-0.0225291 -0.000105825 0)
(-0.0224773 -0.000229532 0)
(-0.0223907 -0.000354199 0)
(-0.022269 -0.000479608 0)
(-0.0221121 -0.000605523 0)
(-0.0219201 -0.000731689 0)
(-0.0216927 -0.000857827 0)
(-0.0214303 -0.000983637 0)
(-0.0211329 -0.0011088 0)
(-0.0208008 -0.00123295 0)
(-0.0204344 -0.00135574 0)
(-0.0200341 -0.00147674 0)
(-0.0196006 -0.00159553 0)
(-0.0191346 -0.00171164 0)
(-0.018637 -0.00182458 0)
(-0.0181086 -0.00193382 0)
(-0.0175508 -0.00203879 0)
(-0.0169647 -0.0021389 0)
(-0.0163518 -0.00223351 0)
(-0.0157138 -0.00232194 0)
(-0.0150524 -0.00240349 0)
(-0.0143698 -0.00247741 0)
(-0.0136681 -0.00254293 0)
(-0.0129498 -0.00259923 0)
(-0.0122175 -0.00264547 0)
(-0.011474 -0.0026808 0)
(-0.0107225 -0.00270432 0)
(-0.00996622 -0.00271514 0)
(-0.00920873 -0.00271236 0)
(-0.00845376 -0.0026951 0)
(-0.00770526 -0.00266249 0)
(-0.00696736 -0.00261371 0)
(-0.00624437 -0.002548 0)
(-0.00554074 -0.00246472 0)
(-0.00486101 -0.00236332 0)
(-0.00420979 -0.00224348 0)
(-0.0035917 -0.00210509 0)
(-0.00301124 -0.00194839 0)
(-0.00247279 -0.00177402 0)
(-0.00198044 -0.00158323 0)
(-0.00153789 -0.001378 0)
(-0.0011483 -0.00116131 0)
(-0.000814182 -0.000937472 0)
(-0.000537221 -0.000712504 0)
(-0.000318036 -0.000494705 0)
(-0.000155945 -0.000295204 0)
(-5.10687e-05 -0.0001287 0)
(-6.56304e-06 -1.56309e-05 0)
(-9.10415e-06 4.93988e-05 0)
(-6.57185e-05 0.000220938 0)
(-0.000194235 0.000441258 0)
(-0.0003868 0.000690365 0)
(-0.000640355 0.000953413 0)
(-0.000953731 0.00121913 0)
(-0.00132481 0.0014791 0)
(-0.00175072 0.00172725 0)
(-0.00222807 0.00195936 0)
(-0.00275307 0.00217265 0)
(-0.00332162 0.00236542 0)
(-0.00392937 0.00253687 0)
(-0.0045719 0.0026868 0)
(-0.00524474 0.00281551 0)
(-0.00594347 0.00292362 0)
(-0.00666378 0.00301201 0)
(-0.00740151 0.00308172 0)
(-0.00815267 0.00313387 0)
(-0.00891351 0.00316965 0)
(-0.00968047 0.00319023 0)
(-0.0104502 0.00319679 0)
(-0.0112197 0.00319044 0)
(-0.011986 0.00317226 0)
(-0.0127464 0.00314325 0)
(-0.0134985 0.00310431 0)
(-0.0142401 0.00305631 0)
(-0.0149691 0.00300001 0)
(-0.0156834 0.00293609 0)
(-0.0163814 0.00286517 0)
(-0.0170614 0.00278779 0)
(-0.0177219 0.00270442 0)
(-0.0183614 0.00261549 0)
(-0.0189787 0.00252136 0)
(-0.0195724 0.00242235 0)
(-0.0201415 0.00231872 0)
(-0.0206848 0.00221072 0)
(-0.0212012 0.00209854 0)
(-0.0216899 0.00198238 0)
(-0.0221498 0.00186239 0)
(-0.02258 0.00173873 0)
(-0.0229797 0.00161153 0)
(-0.0233481 0.0014809 0)
(-0.0236843 0.00134699 0)
(-0.0239876 0.00120991 0)
(-0.0242573 0.00106979 0)
(-0.0244927 0.000926751 0)
(-0.0246931 0.00078094 0)
(-0.0248579 0.000632501 0)
(-0.0249866 0.000481591 0)
(-0.0250786 0.00032838 0)
(-0.0251334 0.000173055 0)
(-0.0251506 1.58174e-05 0)
(-0.0251298 -0.000143113 0)
(-0.0250706 -0.000303496 0)
(-0.0249729 -0.000465072 0)
(-0.0248363 -0.000627559 0)
(-0.0246608 -0.000790648 0)
(-0.0244463 -0.000954008 0)
(-0.0241928 -0.00111728 0)
(-0.0239005 -0.00128007 0)
(-0.0235695 -0.00144197 0)
(-0.0232002 -0.00160252 0)
(-0.022793 -0.00176123 0)
(-0.0223484 -0.00191759 0)
(-0.0218672 -0.00207104 0)
(-0.02135 -0.00222098 0)
(-0.0207979 -0.00236677 0)
(-0.020212 -0.00250772 0)
(-0.0195936 -0.00264312 0)
(-0.018944 -0.0027722 0)
(-0.0182649 -0.00289413 0)
(-0.0175582 -0.00300807 0)
(-0.0168258 -0.00311309 0)
(-0.0160699 -0.00320825 0)
(-0.0152931 -0.00329257 0)
(-0.0144979 -0.003365 0)
(-0.0136872 -0.00342449 0)
(-0.0128643 -0.00346993 0)
(-0.0120324 -0.00350023 0)
(-0.0111952 -0.00351424 0)
(-0.0103564 -0.00351086 0)
(-0.00952026 -0.00348898 0)
(-0.00869089 -0.00344753 0)
(-0.00787281 -0.00338551 0)
(-0.00707064 -0.00330202 0)
(-0.00628915 -0.00319627 0)
(-0.00553323 -0.00306766 0)
(-0.0048078 -0.00291583 0)
(-0.00411777 -0.00274073 0)
(-0.00346797 -0.00254272 0)
(-0.00286306 -0.00232266 0)
(-0.00230745 -0.00208212 0)
(-0.00180517 -0.00182353 0)
(-0.00135977 -0.00155046 0)
(-0.000974238 -0.00126789 0)
(-0.000650893 -0.000982659 0)
(-0.000391165 -0.000703906 0)
(-0.000195414 -0.000443579 0)
(-6.57721e-05 -0.000217036 0)
(-9.01261e-06 -4.49446e-05 0)
(-1.13208e-05 8.59578e-05 0)
(-7.93659e-05 0.000327703 0)
(-0.000231285 0.000615977 0)
(-0.000455872 0.000931071 0)
(-0.000748089 0.00125798 0)
(-0.00110563 0.00158504 0)
(-0.00152545 0.00190339 0)
(-0.00200392 0.00220651 0)
(-0.00253711 0.00248976 0)
(-0.00312077 0.00275003 0)
(-0.00375041 0.00298541 0)
(-0.00442138 0.00319492 0)
(-0.00512896 0.00337833 0)
(-0.00586843 0.00353594 0)
(-0.00663511 0.00366846 0)
(-0.00742445 0.00377689 0)
(-0.00823205 0.00386245 0)
(-0.00905369 0.00392645 0)
(-0.00988538 0.00397029 0)
(-0.0107233 0.00399538 0)
(-0.011564 0.00400311 0)
(-0.012404 0.00399485 0)
(-0.0132404 0.00397187 0)
(-0.0140703 0.00393539 0)
(-0.0148909 0.00388653 0)
(-0.0156999 0.00382633 0)
(-0.0164951 0.00375573 0)
(-0.0172742 0.00367557 0)
(-0.0180354 0.00358663 0)
(-0.0187768 0.00348956 0)
(-0.0194969 0.00338496 0)
(-0.0201941 0.00327336 0)
(-0.0208669 0.00315522 0)
(-0.0215139 0.00303093 0)
(-0.022134 0.00290083 0)
(-0.0227258 0.00276524 0)
(-0.0232883 0.00262441 0)
(-0.0238203 0.00247858 0)
(-0.0243209 0.00232796 0)
(-0.024789 0.00217274 0)
(-0.0252238 0.00201309 0)
(-0.0256243 0.00184918 0)
(-0.0259896 0.00168117 0)
(-0.026319 0.00150922 0)
(-0.0266117 0.0013335 0)
(-0.0268669 0.00115416 0)
(-0.0270839 0.000971395 0)
(-0.027262 0.000785379 0)
(-0.0274007 0.000596317 0)
(-0.0274994 0.000404425 0)
(-0.0275576 0.000209939 0)
(-0.0275747 1.31131e-05 0)
(-0.0275504 -0.000185775 0)
(-0.0274843 -0.000386424 0)
(-0.0273762 -0.000588509 0)
(-0.0272258 -0.000791674 0)
(-0.027033 -0.000995535 0)
(-0.0267977 -0.00119967 0)
(-0.0265201 -0.00140364 0)
(-0.0262001 -0.00160696 0)
(-0.0258382 -0.00180909 0)
(-0.0254346 -0.00200949 0)
(-0.0249898 -0.00220753 0)
(-0.0245044 -0.00240259 0)
(-0.0239791 -0.00259395 0)
(-0.0234149 -0.00278087 0)
(-0.0228128 -0.00296257 0)
(-0.0221739 -0.00313819 0)
(-0.0214997 -0.00330684 0)
(-0.0207918 -0.00346756 0)
(-0.0200518 -0.00361934 0)
(-0.0192819 -0.00376112 0)
(-0.0184841 -0.00389177 0)
(-0.0176608 -0.00401014 0)
(-0.0168148 -0.00411499 0)
(-0.0159489 -0.00420507 0)
(-0.0150661 -0.00427906 0)
(-0.0141699 -0.00433564 0)
(-0.0132639 -0.00437345 0)
(-0.012352 -0.00439112 0)
(-0.0114381 -0.00438731 0)
(-0.0105268 -0.00436068 0)
(-0.00962244 -0.00430997 0)
(-0.00872987 -0.004234 0)
(-0.00785399 -0.00413169 0)
(-0.00699984 -0.00400215 0)
(-0.0061726 -0.0038447 0)
(-0.00537745 -0.00365897 0)
(-0.00461961 -0.00344495 0)
(-0.00390418 -0.00320312 0)
(-0.00323613 -0.00293456 0)
(-0.00262017 -0.00264114 0)
(-0.00206071 -0.00232568 0)
(-0.00156174 -0.00199224 0)
(-0.00112677 -0.00164638 0)
(-0.000758828 -0.00129554 0)
(-0.00046022 -0.000949446 0)
(-0.000232376 -0.000620544 0)
(-7.93478e-05 -0.000324436 0)
(-1.12076e-05 -8.15336e-05 0)
(-1.33281e-05 0.000129256 0)
(-9.20061e-05 0.000452345 0)
(-0.000265966 0.000817737 0)
(-0.000520964 0.00120628 0)
(-0.000850116 0.00160313 0)
(-0.00124999 0.00199653 0)
(-0.00171661 0.00237739 0)
(-0.00224557 0.00273892 0)
(-0.0028323 0.00307622 0)
(-0.00347208 0.00338595 0)
(-0.00416002 0.00366604 0)
(-0.00489112 0.00391544 0)
(-0.0056604 0.00413387 0)
(-0.00646285 0.00432167 0)
(-0.00729356 0.00447966 0)
(-0.00814776 0.00460897 0)
(-0.00902083 0.00471097 0)
(-0.00990835 0.00478721 0)
(-0.0108061 0.00483929 0)
(-0.0117101 0.00486885 0)
(-0.0126167 0.00487752 0)
(-0.0135223 0.0048669 0)
(-0.0144236 0.0048385 0)
(-0.0153177 0.00479375 0)
(-0.0162017 0.00473399 0)
(-0.0170731 0.00466045 0)
(-0.0179293 0.00457425 0)
(-0.0187681 0.00447641 0)
(-0.0195876 0.00436784 0)
(-0.0203857 0.00424935 0)
(-0.0211608 0.00412167 0)
(-0.021911 0.00398543 0)
(-0.0226349 0.00384119 0)
(-0.023331 0.00368943 0)
(-0.0239979 0.00353058 0)
(-0.0246344 0.00336502 0)
(-0.0252392 0.00319306 0)
(-0.0258111 0.00301501 0)
(-0.0263491 0.00283112 0)
(-0.0268521 0.00264164 0)
(-0.027319 0.00244678 0)
(-0.027749 0.00224674 0)
(-0.0281411 0.00204174 0)
(-0.0284944 0.00183197 0)
(-0.0288082 0.00161764 0)
(-0.0290815 0.00139894 0)
(-0.0293137 0.00117612 0)
(-0.0295041 0.00094938 0)
(-0.0296519 0.000718986 0)
(-0.0297567 0.0004852 0)
(-0.0298178 0.000248312 0)
(-0.0298348 8.63365e-06 0)
(-0.0298072 -0.000233496 0)
(-0.0297347 -0.000477709 0)
(-0.029617 -0.000723607 0)
(-0.0294538 -0.000970757 0)
(-0.029245 -0.00121869 0)
(-0.0289906 -0.0014669 0)
(-0.0286907 -0.00171485 0)
(-0.0283453 -0.00196193 0)
(-0.0279548 -0.00220752 0)
(-0.0275196 -0.00245094 0)
(-0.0270401 -0.00269144 0)
(-0.0265171 -0.00292825 0)
(-0.0259513 -0.00316051 0)
(-0.0253437 -0.00338734 0)
(-0.0246954 -0.00360776 0)
(-0.0240077 -0.00382077 0)
(-0.0232821 -0.00402526 0)
(-0.0225203 -0.00422009 0)
(-0.0217242 -0.00440404 0)
(-0.0208958 -0.00457584 0)
(-0.0200377 -0.00473414 0)
(-0.0191522 -0.00487753 0)
(-0.0182422 -0.00500456 0)
(-0.0173108 -0.00511371 0)
(-0.0163613 -0.00520343 0)
(-0.0153973 -0.00527213 0)
(-0.0144225 -0.00531821 0)
(-0.0134412 -0.00534005 0)
(-0.0124576 -0.00533605 0)
(-0.0114763 -0.00530468 0)
(-0.0105021 -0.00524445 0)
(-0.00953994 -0.00515398 0)
(-0.00859508 -0.00503206 0)
(-0.00767278 -0.00487767 0)
(-0.00677848 -0.00469007 0)
(-0.00591762 -0.00446884 0)
(-0.00509568 -0.00421402 0)
(-0.00431805 -0.00392621 0)
(-0.00358999 -0.00360667 0)
(-0.00291658 -0.00325753 0)
(-0.00230259 -0.00288196 0)
(-0.00175248 -0.00248439 0)
(-0.00127036 -0.00207083 0)
(-0.000859995 -0.00164916 0)
(-0.000524561 -0.00122948 0)
(-0.000266537 -0.000824427 0)
(-9.17344e-05 -0.00044957 0)
(-1.31572e-05 -0.000124756 0)
(-1.51388e-05 0.000178736 0)
(-0.000103638 0.000593662 0)
(-0.000298183 0.00104495 0)
(-0.000581815 0.00151421 0)
(-0.000945947 0.00198696 0)
(-0.0013861 0.00245158 0)
(-0.00189735 0.00289896 0)
(-0.00247453 0.0033222 0)
(-0.00311241 0.00371628 0)
(-0.00380576 0.00407775 0)
(-0.00454926 0.00440446 0)
(-0.00533757 0.00469531 0)
(-0.00616539 0.00495006 0)
(-0.00702747 0.00516911 0)
(-0.00791865 0.00535338 0)
(-0.00883395 0.00550418 0)
(-0.00976856 0.00562305 0)
(-0.0107179 0.00571174 0)
(-0.0116775 0.00577209 0)
(-0.0126432 0.00580597 0)
(-0.0136112 0.00581527 0)
(-0.0145778 0.0058018 0)
(-0.0155396 0.00576732 0)
(-0.0164934 0.00571349 0)
(-0.0174362 0.00564186 0)
(-0.0183652 0.00555387 0)
(-0.019278 0.00545082 0)
(-0.0201722 0.00533392 0)
(-0.0210456 0.00520423 0)
(-0.0218961 0.00506271 0)
(-0.0227219 0.00491021 0)
(-0.0235212 0.00474749 0)
(-0.0242923 0.00457522 0)
(-0.0250337 0.00439396 0)
(-0.0257439 0.00420423 0)
(-0.0264216 0.00400649 0)
(-0.0270655 0.00380113 0)
(-0.0276742 0.0035885 0)
(-0.0282467 0.00336892 0)
(-0.0287819 0.00314268 0)
(-0.0292786 0.00291004 0)
(-0.0297358 0.00267127 0)
(-0.0301526 0.0024266 0)
(-0.030528 0.00217629 0)
(-0.0308612 0.00192057 0)
(-0.0311513 0.00165971 0)
(-0.0313976 0.00139396 0)
(-0.0315993 0.00112362 0)
(-0.0317556 0.000848963 0)
(-0.0318661 0.000570327 0)
(-0.03193 0.000288053 0)
(-0.0319469 2.51712e-06 0)
(-0.0319164 -0.000285877 0)
(-0.031838 -0.00057669 0)
(-0.0317114 -0.000869446 0)