/*--------------------------------*- C++ -*----------------------------------*\
| =========                 |                                                 |
| \\      /  F ield         | OpenFOAM: The Open Source CFD Toolbox           |
|  \\    /   O peration     | Version:  2512                                  |
|   \\  /    A nd           | Website:  www.openfoam.com                      |
|    \\/     M anipulation  |                                                 |
\*---------------------------------------------------------------------------*/
FoamFile
{
    version     2.0;
    format      ascii;
    arch        "LSB;label=32;scalar=64";
    class       volScalarField;
    location    "0.12";
    object      p;
}
// * * * * * * * * * * * * * * * * * * * * * * * * * * * * * * * * * * * * * //

dimensions      [0 2 -2 0 0 0 0];

internalField   nonuniform List<scalar> 
10000
(
1.27512e-08
-2.51653e-05
-8.46469e-05
-0.000164537
-0.00025411
-0.000350164
-0.000448935
-0.00054704
-0.000641655
-0.000730401
-0.0008114
-0.000883193
-0.000944619
-0.000994737
-0.00103283
-0.00105843
-0.00107121
-0.001071
-0.00105769
-0.00103125
-0.00099173
-0.000939212
-0.000873856
-0.000795883
-0.000705528
-0.000603004
-0.000488524
-0.000362335
-0.000224719
-7.59612e-05
8.36717e-05
0.00025393
0.00043455
0.000625235
0.000825672
0.00103556
0.00125458
0.00148243
0.00171874
0.00196313
0.0022152
0.00247456
0.00274079
0.00301346
0.00329209
0.00357615
0.00386513
0.00415851
0.00445574
0.00475627
0.00505947
0.00536473
0.00567141
0.00597885
0.00628637
0.00659328
0.00689887
0.0072024
0.00750313
0.00780028
0.00809306
0.00838068
0.00866234
0.00893726
0.00920465
0.0094637
0.00971362
0.0099536
0.0101829
0.0104007
0.0106063
0.0107991
0.0109785
0.0111437
0.0112943
0.0114298
0.0115496
0.0116535
0.0117412
0.0118126
0.0118675
0.011906
0.0119283
0.0119346
0.0119253
0.0119011
0.0118626
0.0118109
0.0117473
0.011673
0.0115901
0.0115006
0.011407
0.0113125
0.0112207
0.0111361
0.0110637
0.0110094
0.0109798
0.0109767
-1.61868e-05
-4.00335e-05
-8.92159e-05
-0.000154734
-0.000229797
-0.000310666
-0.000394292
-0.000477857
-0.000558825
-0.000635045
-0.00070473
-0.000766419
-0.000818946
-0.000861378
-0.000892972
-0.000913162
-0.00092154
-0.000917839
-0.000901917
-0.000873715
-0.000833203
-0.000780395
-0.000715383
-0.000638332
-0.000549421
-0.000448827
-0.000336731
-0.000213346
-7.89187e-05
6.62942e-05
0.000222062
0.00038816
0.00056433
0.000750279
0.000945714
0.00115035
0.00136389
0.00158601
0.00181638
0.00205462
0.00230031
0.00255307
0.00281251
0.00307819
0.00334964
0.00362633
0.00390777
0.00419342
0.00448278
0.00477528
0.00507032
0.00536729
0.00566556
0.00596448
0.0062634
0.00656166
0.00685854
0.00715336
0.00744536
0.0077338
0.00801792
0.00829695
0.00857015
0.00883675
0.009096
0.00934714
0.0095894
0.00982203
0.0100443
0.0102555
0.0104549
0.0106421
0.0108163
0.010977
0.0111237
0.011256
0.0113734
0.0114757
0.0115627
0.0116342
0.0116904
0.0117311
0.0117567
0.0117674
0.0117638
0.0117464
0.011716
0.0116737
0.0116205
0.0115581
0.0114881
0.0114125
0.0113337
0.0112544
0.0111779
0.0111077
0.0110478
0.0110024
0.0109767
0.0109735
-1.62652e-05
-3.79521e-05
-7.95107e-05
-0.000135922
-0.000201411
-0.000272343
-0.000345856
-0.000419389
-0.000490702
-0.000557857
-0.000619182
-0.000673277
-0.000719001
-0.000755449
-0.000781905
-0.000797777
-0.000802595
-0.000796041
-0.000777945
-0.000748209
-0.00070677
-0.000653605
-0.000588766
-0.000512369
-0.000424541
-0.000325417
-0.000215167
-9.39891e-05
3.78993e-05
0.000180284
0.000332961
0.000495713
0.000668287
0.000850403
0.00104179
0.00124216
0.00145124
0.00166872
0.00189424
0.00212744
0.00236793
0.00261533
0.00286923
0.00312922
0.00339483
0.00366554
0.00394085
0.00422026
0.00450325
0.00478927
0.00507775
0.00536807
0.00565961
0.00595173
0.0062438
0.00653517
0.00682517
0.00711309
0.0073982
0.00767977
0.00795707
0.00822937
0.00849593
0.00875603
0.00900894
0.00925391
0.0094902
0.0097171
0.0099339
0.01014
0.0103347
0.0105174
0.0106877
0.0108449
0.0109886
0.0111185
0.0112341
0.0113352
0.0114217
0.0114935
0.0115505
0.011593
0.0116212
0.0116354
0.011636
0.0116238
0.0115995
0.011564
0.0115187
0.0114647
0.0114039
0.011338
0.0112693
0.0112
0.0111331
0.0110714
0.0110181
0.0109766
0.010951
0.0109442
8.98366e-06
-1.60688e-05
-5.61347e-05
-0.000108179
-0.000168322
-0.000233278
-0.000300311
-0.000367114
-0.000431689
-0.000492284
-0.000547395
-0.000595729
-0.000636191
-0.000667914
-0.000690217
-0.000702526
-0.000704374
-0.000695438
-0.000675506
-0.000644427
-0.000602113
-0.000548551
-0.000483777
-0.000407852
-0.000320858
-0.000222904
-0.000114149
5.21911e-06
0.000135013
0.000275053
0.000425156
0.000585108
0.000754653
0.000933527
0.00112148
0.00131826
0.00152356
0.00173709
0.00195848
0.00218739
0.00242345
0.00266628
0.00291549
0.00317064
0.00343128
0.00369691
0.00396705
0.00424119
0.00451884
0.00479945
0.00508244
0.00536721
0.00565315
0.00593965
0.00622607
0.00651179
0.00679613
0.00707841
0.00735789
0.00763388
0.00790564
0.00817248
0.00843368
0.00868854
0.00893633
0.00917633
0.00940784
0.00963015
0.0098426
0.0100446
0.0102355
0.0104147
0.0105818
0.0107363
0.0108777
0.0110057
0.0111199
0.0112201
0.0113062
0.0113782
0.011436
0.0114799
0.0115101
0.011527
0.0115309
0.0115226
0.0115029
0.0114726
0.0114329
0.0113851
0.0113307
0.0112715
0.0112093
0.0111463
0.0110848
0.0110273
0.0109765
0.010935
0.0109057
0.0108903
5.68401e-05
2.21846e-05
-2.11997e-05
-7.25754e-05
-0.000130343
-0.000191762
-0.000254451
-0.000316425
-0.000375915
-0.000431365
-0.000481451
-0.000525015
-0.000561066
-0.000588782
-0.000607488
-0.00061664
-0.000615829
-0.000604743
-0.000583135
-0.000550819
-0.000507693
-0.000453737
-0.000388975
-0.000313436
-0.000227161
-0.000130245
-2.28397e-05
9.48887e-05
0.000222787
0.000360701
0.000508457
0.000665837
0.000832595
0.00100849
0.00119328
0.00138673
0.00158855
0.00179841
0.00201597
0.0022409
0.00247285
0.00271145
0.00295632
0.00320701
0.00346306
0.00372401
0.00398938
0.0042587
0.00453147
0.00480715
0.00508515
0.00536488
0.00564576
0.00592719
0.00620856
0.00648922
0.00676851
0.00704574
0.00732022
0.00759124
0.00785811
0.00812013
0.00837661
0.00862685
0.00887015
0.0091058
0.00933311
0.00955141
0.00976006
0.00995847
0.0101461
0.0103223
0.0104867
0.0106388
0.0107782
0.0109045
0.0110175
0.0111169
0.0112027
0.0112749
0.0113334
0.0113785
0.0114104
0.0114295
0.0114362
0.0114311
0.0114151
0.0113889
0.0113538
0.0113108
0.0112614
0.011207
0.0111494
0.0110905
0.0110321
0.0109764
0.0109255
0.0108817
0.0108459
0.0108185
0.000119311
7.22499e-05
2.25403e-05
-3.10011e-05
-8.88523e-05
-0.000148896
-0.00020915
-0.000267972
-0.000323876
-0.000375513
-0.000421708
-0.000461459
-0.000493906
-0.000518295
-0.000533978
-0.000540453
-0.000537349
-0.000524367
-0.000501253
-0.000467821
-0.000423971
-0.000369667
-0.000304898
-0.000229667
-0.000144011
-4.80216e-05
5.81671e-05
0.000174424
0.000300625
0.000436627
0.000582251
0.000737287
0.000901508
0.00107469
0.0012566
0.00144701
0.00164563
0.00185214
0.0020662
0.00228749
0.00251569
0.00275042
0.00299131
0.00323792
0.00348981
0.00374651
0.00400757
0.00427254
0.00454092
0.00481217
0.00508571
0.00536096
0.00563734
0.00591429
0.00619119
0.0064674
0.00674226
0.00701509
0.0072852
0.00755191
0.00781454
0.0080724
0.00832481
0.00857108
0.00881051
0.00904243
0.00926614
0.00948102
0.00968643
0.00988181
0.0100666
0.0102403
0.0104024
0.0105525
0.0106902
0.0108151
0.0109271
0.0110259
0.0111114
0.0111837
0.0112428
0.0112889
0.0113221
0.011343
0.0113519
0.0113494
0.0113363
0.0113133
0.0112816
0.0112421
0.0111962
0.0111452
0.0110905
0.0110337
0.0109766
0.0109206
0.0108677
0.0108196
0.0107756
0.0107343
0.000190595
0.000129853
7.20502e-05
1.44061e-05
-4.54705e-05
-0.000105978
-0.000165463
-0.000222634
-0.000276303
-0.000325344
-0.000368738
-0.000405627
-0.00043526
-0.000456965
-0.000470185
-0.000474476
-0.000469475
-0.000454882
-0.000430466
-0.00039607
-0.0003516
-0.000296993
-0.000232209
-0.000157238
-7.21248e-05
2.30396e-05
0.000128148
0.000243105
0.000367805
0.000502101
0.000645813
0.000798741
0.000960681
0.00113143
0.00131077
0.00149845
0.00169417
0.00189764
0.00210854
0.00232657
0.0025514
0.00278267
0.00301999
0.00326294
0.0035111
0.00376402
0.00402128
0.00428241
0.00454692
0.00481428
0.00508392
0.00535527
0.00562777
0.00590085
0.00617391
0.00644632
0.0067174
0.00698648
0.00725289
0.00751596
0.00777502
0.0080294
0.00827841
0.00852137
0.00875759
0.0089864
0.00920715
0.0094192
0.00962196
0.00981487
0.00999737
0.010169
0.0103292
0.0104777
0.010614
0.0107379
0.010849
0.0109473
0.0110326
0.011105
0.0111645
0.0112113
0.0112456
0.0112679
0.0112784
0.0112778
0.0112668
0.0112461
0.0112167
0.0111796
0.0111359
0.0110867
0.0110334
0.0109773
0.0109197
0.0108619
0.0108055
0.0107518
0.0106984
0.0106426
0.000265961
0.000191194
0.000124408
6.14047e-05
-1.88482e-06
-6.42394e-05
-0.000124304
-0.000181083
-0.000233654
-0.000281127
-0.000322674
-0.000357547
-0.000385085
-0.000404728
-0.000416017
-0.000418562
-0.000412019
-0.000396104
-0.000370616
-0.000335426
-0.00029044
-0.000235575
-0.000170777
-9.60422e-05
-1.14221e-05
8.30053e-05
0.000187162
0.000300976
0.000424346
0.000557123
0.000699125
0.000850171
0.00101008
0.00117866
0.00135569
0.00154093
0.00173407
0.00193482
0.0021429
0.00235803
0.00257987
0.00280805
0.00304221
0.00328193
0.00352681
0.00377643
0.00403037
0.00428817
0.00454934
0.00481335
0.00507964
0.00534766
0.00561687
0.0058867
0.00615655
0.00642577
0.0066937
0.00695967
0.00722303
0.00748311
0.00773926
0.0079908
0.00823706
0.00847734
0.00871098
0.00893731
0.00915569
0.00936551
0.00956617
0.00975713
0.00993784
0.0101078
0.0102666
0.0104138
0.0105491
0.0106721
0.0107826
0.0108804
0.0109656
0.0110381
0.0110979
0.0111452
0.0111803
0.0112035
0.0112152
0.0112159
0.0112063
0.0111871
0.0111591
0.0111233
0.0110806
0.0110322
0.0109789
0.0109221
0.0108627
0.0108019
0.0107408
0.0106807
0.0106175
0.0105472
0.00034173
0.000253139
0.000176985
0.000107843
4.02078e-05
-2.4993e-05
-8.66633e-05
-0.000144069
-0.000196505
-0.000243292
-0.000283781
-0.000317349
-0.000343443
-0.000361609
-0.000371464
-0.00037266
-0.000364895
-0.000347932
-0.000321606
-0.000285794
-0.000240394
-0.000185317
-0.00012052
-4.60176e-05
3.81463e-05
0.000131918
0.000235244
0.000348057
0.000470248
0.000601666
0.000742147
0.00089153
0.00104965
0.00121631
0.0013913
0.00157436
0.0017652
0.00196356
0.00216917
0.00238174
0.00260095
0.00282644
0.00305783
0.00329475
0.00353681
0.0037836
0.00403471
0.00428969
0.00454803
0.00480922
0.00507272
0.00533799
0.00560449
0.00587166
0.00613889
0.00640553
0.00667092
0.00693441
0.00719535
0.00745308
0.00770695
0.00795629
0.00820041
0.00843864
0.00867031
0.00889476
0.00911136
0.0093195
0.0095186
0.00970812
0.00988753
0.0100563
0.0102141
0.0103604
0.0104949
0.0106172
0.0107273
0.0108249
0.0109099
0.0109824
0.0110425
0.0110901
0.0111257
0.0111495
0.0111619
0.0111634
0.0111545
0.011136
0.0111087
0.0110733
0.0110307
0.0109819
0.0109277
0.0108691
0.010807
0.0107422
0.0106758
0.0106087
0.0105356
0.0104514
0.000414987
0.000313052
0.000227485
0.000151788
7.91901e-05
1.04244e-05
-5.36065e-05
-0.000112421
-0.000165517
-0.000212367
-0.000252464
-0.000285335
-0.000310558
-0.000327767
-0.000336625
-0.000336836
-0.00032816
-0.000310417
-0.000283466
-0.000247184
-0.000201464
-0.000146233
-8.14727e-05
-7.20551e-06
7.65405e-05
0.000169737
0.00027234
0.000384273
0.000505419
0.000635633
0.000774775
0.000922705
0.00107926
0.00124425
0.00141743
0.00159858
0.00178741
0.00198369
0.00218716
0.00239753
0.00261447
0.00283764
0.00306668
0.00330123
0.00354092
0.00378536
0.00403413
0.00428678
0.00454281
0.00480172
0.00506298
0.00532607
0.00559045
0.00585554
0.00612073
0.00638539
0.00664885
0.00691047
0.0071696
0.0074256
0.00767781
0.00792556
0.00816817
0.00840495
0.00863524
0.00885839
0.00907377
0.00928079
0.00947887
0.00966745
0.00984601
0.0100141
0.0101712
0.0103169
0.0104509
0.0105729
0.0106827
0.0107801
0.0108651
0.0109376
0.0109978
0.0110456
0.0110814
0.0111055
0.0111182
0.0111199
0.0111113
0.0110929
0.0110655
0.0110297
0.0109864
0.0109364
0.0108804
0.0108193
0.0107537
0.0106843
0.0106121
0.0105378
0.0104551
0.0103575
0.000483373
0.000368711
0.000273917
0.00019151
0.000113571
4.07436e-05
-2.6207e-05
-8.7029e-05
-0.000141394
-0.000188903
-0.000229181
-0.000261897
-0.000286747
-0.000303429
-0.000311665
-0.000311228
-0.000301941
-0.000283665
-0.000256276
-0.000219653
-0.000173705
-0.000118391
-5.37097e-05
2.03227e-05
0.000103697
0.000196394
0.000298364
0.00040952
0.000529745
0.000658909
0.000796892
0.000943567
0.00109877
0.0012623
0.00143392
0.00161341
0.00180052
0.00199503
0.00219669
0.0024052
0.00262024
0.00284148
0.00306857
0.00330119
0.00353897
0.00378153
0.00402845
0.00427926
0.0045335
0.00479066
0.00505024
0.0053117
0.00557452
0.00583811
0.00610185
0.00636511
0.00662724
0.00688759
0.00714552
0.0074004
0.00765156
0.00789833
0.00814001
0.00837594
0.00860543
0.00882786
0.00904259
0.00924903
0.0094466
0.00963473
0.00981289
0.00998061
0.0101374
0.0102829
0.0104167
0.0105386
0.0106483
0.0107457
0.0108307
0.0109032
0.0109634
0.0110113
0.0110472
0.0110712
0.0110838
0.0110854
0.0110765
0.0110577
0.0110296
0.0109928
0.0109482
0.0108963
0.0108378
0.0107735
0.010704
0.0106295
0.0105512
0.0104698
0.0103776
0.0102677
0.000544978
0.00041827
0.000314545
0.000225446
0.000142005
6.47916e-05
-5.50077e-06
-6.8776e-05
-0.000124859
-0.000173495
-0.00021444
-0.000247469
-0.000272355
-0.000288871
-0.000296817
-0.000296039
-0.000286411
-0.000267818
-0.000240146
-0.000203298
-0.00015722
-0.000101898
-3.73326e-05
3.64755e-05
0.000119524
0.000211788
0.000313201
0.000423671
0.000543095
0.000671361
0.000808362
0.00095397
0.00110801
0.00127029
0.00144058
0.00161868
0.00180436
0.0019974
0.00219756
0.00240455
0.00261805
0.00283774
0.00306331
0.00329443
0.00353076
0.00377191
0.00401744
0.00426693
0.00451989
0.00477583
0.00503427
0.00529467
0.00555648
0.00581913
0.006082
0.00634444
0.00660582
0.00686549
0.00712283
0.00737718
0.00762789
0.00787427
0.00811563
0.00835128
0.00858056
0.00880283
0.00901746
0.00922385
0.00942141
0.00960957
0.00978779
0.00995558
0.0101125
0.0102581
0.010392
0.010514
0.0106238
0.0107213
0.0108063
0.0108789
0.0109391
0.0109869
0.0110226
0.0110464
0.0110587
0.0110598
0.0110502
0.0110305
0.0110012
0.0109629
0.0109163
0.010862
0.0108006
0.0107327
0.0106587
0.010579
0.0104945
0.010406
0.0103049
0.0101834
0.000598278
0.000460217
0.0003479
0.000252222
0.000163247
8.14677e-05
7.55756e-06
-5.84887e-05
-0.00011664
-0.000166786
-0.00020879
-0.000242498
-0.000267755
-0.000284419
-0.000292375
-0.000291529
-0.000281785
-0.000263048
-0.000235229
-0.000198275
-0.000152167
-9.68999e-05
-3.24687e-05
4.11327e-05
0.000123896
0.000215777
0.0003167
0.000426576
0.000545321
0.000672838
0.000809023
0.000953737
0.00110681
0.00126803
0.00143722
0.00161418
0.00179872
0.0019906
0.00218958
0.00239538
0.0026077
0.00282623
0.00305069
0.00328075
0.00351608
0.00375627
0.00400091
0.00424956
0.00450175
0.004757
0.00501483
0.00527471
0.00553607
0.00579834
0.00606089
0.00632309
0.0065843
0.00684389
0.00710122
0.00735564
0.00760649
0.00785307
0.00809468
0.00833063
0.00856027
0.00878295
0.00899802
0.00920489
0.00940294
0.0095916
0.00977032
0.00993859
0.0100959
0.010242
0.0103763
0.0104986
0.0106088
0.0107065
0.0107917
0.0108643
0.0109245
0.0109722
0.0110076
0.011031
0.0110426
0.0110429
0.0110323
0.0110113
0.0109804
0.0109402
0.0108913
0.0108341
0.0107694
0.0106975
0.0106188
0.0105337
0.0104431
0.0103477
0.0102381
0.0101059
0.000642017
0.000493289
0.000372752
0.000270636
0.000176159
8.9761e-05
1.20883e-05
-5.69601e-05
-0.000117468
-0.000169427
-0.000212781
-0.00024745
-0.000273358
-0.00029045
-0.00029868
-0.000297988
-0.000288306
-0.000269568
-0.000241735
-0.000204792
-0.000158739
-0.00010357
-3.92785e-05
3.41337e-05
0.00011664
0.000208182
0.000308681
0.000418061
0.000536251
0.000663162
0.000798682
0.000942666
0.00109494
0.00125532
0.00142364
0.00159973
0.0017834
0.00197441
0.00217252
0.00237747
0.00258897
0.00280674
0.0030305
0.00325994
0.0034947
0.0037344
0.00397862
0.00422691
0.00447884
0.00473393
0.00499168
0.00525156
0.00551301
0.00577544
0.00603823
0.00630076
0.00656238
0.00682246
0.00708038
0.00733546
0.00758704
0.0078344
0.00807684
0.00831368
0.00854425
0.00876788
0.00898395
0.00919181
0.00939085
0.00958048
0.00976013
0.00992929
0.0100875
0.0102343
0.0103693
0.0104922
0.0106028
0.010701
0.0107864
0.0108592
0.0109193
0.0109668
0.0110019
0.0110247
0.0110355
0.0110348
0.0110229
0.0110003
0.0109675
0.0109251
0.0108734
0.0108131
0.0107447
0.0106686
0.0105851
0.0104946
0.0103979
0.0102957
0.0101782
0.010036
0.000675106
0.000516388
0.000388031
0.000279655
0.000179757
8.8757e-05
7.24562e-06
-6.49714e-05
-0.000128047
-0.000182034
-0.000226955
-0.000262815
-0.00028962
-0.000307381
-0.000316092
-0.000315727
-0.000306251
-0.000287649
-0.000259927
-0.000223095
-0.000177159
-0.000122114
-5.7962e-05
1.52732e-05
9.75457e-05
0.000188791
0.000288938
0.000397925
0.000515685
0.000642123
0.00077712
0.000920528
0.00107219
0.00123194
0.00139963
0.00157511
0.00175817
0.0019486
0.00214616
0.0023506
0.00256165
0.00277905
0.00300252
0.00323176
0.00346641
0.00370607
0.00395032
0.00419875
0.00445092
0.00470635
0.00496453
0.00522495
0.00548702
0.00575015
0.00601374
0.00627716
0.00653976
0.00680093
0.00706001
0.00731634
0.00756923
0.00781796
0.00806182
0.00830012
0.00853217
0.00875733
0.00897491
0.00918429
0.00938482
0.00957588
0.00975691
0.00992736
0.0100867
0.0102346
0.0103706
0.0104945
0.0106058
0.0107045
0.0107903
0.0108633
0.0109234
0.0109707
0.0110053
0.0110275
0.0110374
0.0110355
0.0110221
0.0109977
0.0109627
0.0109177
0.0108631
0.0107994
0.0107271
0.0106466
0.0105583
0.0104623
0.0103596
0.0102509
0.0101258
0.00997443
0.000696626
0.000528552
0.000392789
0.000278389
0.000173188
7.76108e-05
-7.78518e-06
-8.32666e-05
-0.000149037
-0.000205205
-0.000251866
-0.000289114
-0.000317022
-0.000335638
-0.000344986
-0.000345082
-0.000335946
-0.000317609
-0.000290106
-0.000253459
-0.000207679
-0.000152772
-8.87634e-05
-1.5698e-05
6.63651e-05
0.000157364
0.00025724
0.000365939
0.000483387
0.000609479
0.00074409
0.000887082
0.00103832
0.00119765
0.00136496
0.00154008
0.00172281
0.00191296
0.00211028
0.00231455
0.00252552
0.00274295
0.00296655
0.00319601
0.00343096
0.00367102
0.00391578
0.00416483
0.00441772
0.004674
0.00493314
0.0051946
0.00545782
0.0057222
0.00598713
0.006252
0.00651617
0.006779
0.00703984
0.007298
0.00755278
0.00780347
0.00804933
0.00828966
0.00852378
0.00875101
0.00897066
0.00918206
0.00938457
0.00957754
0.00976038
0.00993254
0.0100935
0.0102429
0.0103802
0.0105051
0.0106174
0.0107168
0.0108032
0.0108765
0.0109367
0.0109838
0.0110179
0.0110393
0.0110482
0.011045
0.0110299
0.0110035
0.0109662
0.0109184
0.0108606
0.0107933
0.010717
0.010632
0.0105387
0.0104372
0.0103286
0.0102137
0.0100814
0.00992141
0.000705859
0.000528983
0.000386204
0.000266029
0.00015566
5.55391e-05
-3.37515e-05
-0.000112531
-0.000181069
-0.000239533
-0.000288088
-0.000326887
-0.000356049
-0.00037565
-0.000385757
-0.000386437
-0.000377764
-0.000359802
-0.000332599
-0.000296184
-0.000250584
-0.000195829
-0.000131968
-5.90639e-05
2.28239e-05
0.000113641
0.000213334
0.000321846
0.000439092
0.00056496
0.000699327
0.000842073
0.00099308
0.00115223
0.00131939
0.0014944
0.00167708
0.00186723
0.00206464
0.0022691
0.00248038
0.00269822
0.00292234
0.00315243
0.00338812
0.00362903
0.00387476
0.0041249
0.00437901
0.00463662
0.00489721
0.00516024
0.00542513
0.0056913
0.00595815
0.00622504
0.00649135
0.00675643
0.00701961
0.00728019
0.00753746
0.00779069
0.00803914
0.00828209
0.00851884
0.00874869
0.00897094
0.0091849
0.00938989
0.00958524
0.00977034
0.00994463
0.0101076
0.0102587
0.0103977
0.010524
0.0106375
0.0107379
0.010825
0.0108987
0.010959
0.011006
0.0110396
0.0110603
0.0110681
0.0110633
0.0110465
0.0110179
0.010978
0.0109273
0.0108662
0.0107951
0.0107146
0.010625
0.0105267
0.0104198
0.0103054
0.0101844
0.0100451
0.00987713
0.000702238
0.000517024
0.000367555
0.00024182
0.000126422
2.18352e-05
-7.13217e-05
-0.000153408
-0.000224763
-0.000285622
-0.000336191
-0.000376658
-0.000407173
-0.000427859
-0.000438833
-0.000440213
-0.000432108
-0.000414599
-0.000387745
-0.000351593
-0.000306192
-0.000251603
-0.000187894
-0.000115132
-3.33706e-05
5.73386e-05
0.000156939
0.000265361
0.000382512
0.000508279
0.000642553
0.000785235
0.000936222
0.0010954
0.00126266
0.00143783
0.00162074
0.0018112
0.00200903
0.00221403
0.00242597
0.00264461
0.00286965
0.00310078
0.00333763
0.00357983
0.00382698
0.00407869
0.0043345
0.00459394
0.0048565
0.0051216
0.0053887
0.00565721
0.00592652
0.00619601
0.00646505
0.00673297
0.00699908
0.00726269
0.00752304
0.00777941
0.00803104
0.00827719
0.00851715
0.00875018
0.00897558
0.00919262
0.00940058
0.00959879
0.00978662
0.00996346
0.0101288
0.0102821
0.010423
0.0105511
0.010666
0.0107676
0.0108555
0.0109298
0.0109904
0.0110372
0.0110704
0.0110903
0.0110969
0.0110906
0.0110719
0.011041
0.0109984
0.0109446
0.01088
0.010805
0.0107202
0.0106259
0.0105225
0.0104101
0.01029
0.0101631
0.0100173
0.00984162
0.000685253
0.000492092
0.000336195
0.000205084
8.48091e-05
-2.41358e-05
-0.000121115
-0.000206518
-0.000280739
-0.000344062
-0.000396722
-0.000438928
-0.000470869
-0.000492726
-0.00050467
-0.000506848
-0.000499385
-0.000482377
-0.000455902
-0.000420035
-0.000374854
-0.000320441
-0.000256874
-0.000184217
-0.000102523
-1.18437e-05
8.77507e-05
0.000196177
0.00031334
0.00043914
0.000573485
0.000716293
0.000867473
0.00102692
0.00119451
0.00137009
0.00155351
0.0017446
0.00194318
0.00214908
0.00236206
0.00258187
0.00280822
0.00304079
0.00327922
0.00352315
0.00377218
0.00402591
0.00428391
0.00454567
0.00481069
0.00507839
0.00534824
0.00561963
0.00589198
0.00616466
0.00643702
0.00670837
0.00697803
0.00724526
0.00750931
0.00776941
0.00802482
0.00827477
0.00851851
0.00875531
0.0089844
0.00920504
0.0094165
0.00961806
0.00980907
0.00998891
0.010157
0.0103129
0.0104561
0.0105862
0.0107029
0.0108058
0.0108948
0.0109698
0.0110307
0.0110775
0.0111104
0.0111294
0.0111348
0.011127
0.0111062
0.0110728
0.0110274
0.0109704
0.0109021
0.0108231
0.0107339
0.0106348
0.0105262
0.0104085
0.0102827
0.0101499
0.00999775
0.00981484
0.000654406
0.000453649
0.000291562
0.000155243
3.02332e-05
-8.29711e-05
-0.000183733
-0.000272467
-0.000349589
-0.000415408
-0.000470193
-0.000514186
-0.000547625
-0.00057074
-0.000583735
-0.000586776
-0.000579998
-0.000563518
-0.000537446
-0.000501887
-0.000456941
-0.000402703
-0.00033925
-0.000266647
-0.000184951
-9.42266e-05
5.44297e-06
0.000113969
0.000231264
0.000357244
0.000491835
0.000634966
0.000786552
0.000946488
0.00111466
0.00129092
0.00147514
0.00166717
0.00186684
0.00207398
0.00228836
0.00250971
0.00273774
0.00297214
0.00321257
0.00345866
0.00371002
0.00396624
0.00422689
0.00449147
0.00475945
0.00503028
0.00530341
0.00557827
0.00585424
0.0061307
0.00640698
0.00668238
0.00695618
0.00722765
0.007496
0.00776047
0.00802027
0.00827461
0.00852274
0.00876387
0.00899722
0.00922201
0.00943748
0.0096429
0.00983758
0.0100209
0.0101922
0.010351
0.0104969
0.0106294
0.010748
0.0108526
0.0109429
0.0110188
0.0110802
0.011127
0.0111595
0.0111777
0.0111819
0.0111724
0.0111495
0.0111136
0.0110652
0.0110048
0.0109327
0.0108495
0.0107557
0.0106518
0.010538
0.0104148
0.0102834
0.0101449
0.00998661
0.00979672
0.000609252
0.000401214
0.000233168
9.17896e-05
-3.78548e-05
-0.000155252
-0.000259763
-0.000351822
-0.00043185
-0.000500175
-0.000557104
-0.000602934
-0.000637944
-0.000662386
-0.000676483
-0.000680418
-0.000674348
-0.00065842
-0.000632774
-0.000597539
-0.000552833
-0.000498749
-0.000435367
-0.000362758
-0.000280992
-0.000190152
-9.0325e-05
1.84041e-05
0.000135962
0.000262281
0.0003973
0.000540953
0.000693155
0.000853807
0.0010228
0.00120002
0.00138533
0.00157861
0.00177971
0.00198842
0.00220453
0.00242778
0.00265787
0.00289449
0.00313732
0.00338599
0.00364011
0.00389929
0.00416306
0.00443094
0.00470239
0.00497689
0.00525386
0.00553275
0.00581293
0.00609377
0.00637458
0.00665465
0.00693322
0.00720955
0.00748284
0.00775229
0.0080171
0.00827647
0.00852958
0.00877564
0.00901382
0.00924333
0.00946337
0.00967317
0.00987201
0.0100592
0.0102343
0.0103965
0.0105454
0.0106805
0.0108015
0.010908
0.0109998
0.0110767
0.0111387
0.0111857
0.0112179
0.0112353
0.0112382
0.011227
0.0112019
0.0111634
0.0111119
0.0110479
0.0109719
0.0108845
0.010786
0.010677
0.010558
0.0104293
0.0102923
0.0101482
0.00998387
0.00978721
0.000549433
0.000334365
0.00016055
1.42366e-05
-0.000119977
-0.000241524
-0.000349745
-0.000445097
-0.000528016
-0.000598855
-0.000657964
-0.000705683
-0.000742315
-0.000768126
-0.000783348
-0.000788193
-0.00078285
-0.000767496
-0.000742295
-0.000707392
-0.000662908
-0.000608941
-0.000545577
-0.000472904
-0.000391008
-0.00029998
-0.000199906
-9.0858e-05
2.71055e-05
0.00015393
0.000289559
0.000433927
0.000586954
0.000748547
0.000918613
0.00109705
0.00128376
0.0014786
0.00168142
0.00189203
0.00211021
0.00233569
0.0025682
0.00280742
0.00305305
0.00330471
0.00356204
0.00382461
0.00409197
0.00436363
0.00463908
0.00491777
0.00519915
0.00548265
0.00576764
0.00605347
0.00633943
0.00662478
0.00690876
0.00719058
0.00746945
0.00774453
0.008015
0.00828001
0.00853874
0.00879033
0.00903396
0.00926877
0.00949394
0.00970867
0.00991222
0.0101039
0.010283
0.0104491
0.0106014
0.0107397
0.0108633
0.010972
0.0110655
0.0111437
0.0112065
0.0112537
0.0112856
0.0113023
0.011304
0.011291
0.0112637
0.0112224
0.0111677
0.0111001
0.01102
0.010928
0.0108248
0.0107107
0.0105864
0.0104522
0.0103096
0.0101599
0.00998956
0.00978623
0.000474641
0.000252711
7.32516e-05
-7.79013e-05
-0.000216618
-0.000342273
-0.000454162
-0.00055277
-0.000638573
-0.000711952
-0.000773284
-0.00082293
-0.000861209
-0.000888399
-0.000904759
-0.000910529
-0.000905934
-0.000891174
-0.000866428
-0.000831844
-0.000787549
-0.000733652
-0.000670257
-0.000597467
-0.000515381
-0.000424088
-0.000323666
-0.000214172
-9.56528e-05
3.18424e-05
0.000168258
0.000313531
0.000467587
0.000630347
0.000801734
0.000981665
0.00117004
0.00136673
0.00157158
0.0017844
0.00200496
0.00223301
0.00246827
0.00271047
0.00295928
0.00321435
0.0034753
0.0037417
0.00401312
0.00428906
0.00456901
0.00485244
0.0051388
0.00542749
0.00571789
0.00600932
0.00630104
0.00659231
0.00688233
0.00717031
0.0074554
0.00773677
0.00801355
0.00828487
0.00854986
0.00880764
0.00905733
0.00929806
0.00952896
0.0097492
0.00995802
0.0101547
0.0103385
0.0105088
0.0106651
0.0108067
0.0109334
0.0110446
0.0111402
0.0112198
0.0112835
0.0113312
0.0113629
0.0113789
0.0113793
0.0113645
0.0113349
0.0112908
0.0112328
0.0111613
0.0110771
0.0109805
0.0108723
0.0107531
0.0106234
0.0104836
0.0103353
0.01018
0.0100037
0.00979367
0.000384581
0.000155881
-2.91524e-05
-0.000185074
-0.000328221
-0.000457933
-0.000573465
-0.000675322
-0.000764021
-0.00083997
-0.000903555
-0.000955143
-0.000995071
-0.00102365
-0.00104116
-0.00104788
-0.00104405
-0.00102989
-0.00100559
-0.000971298
-0.000927154
-0.000873285
-0.000809815
-0.000736859
-0.000654518
-0.000562873
-0.00046199
-0.000351915
-0.000232691
-0.000104365
3.30085e-05
0.00017937
0.000334657
0.000498809
0.000671763
0.000853446
0.00104376
0.00124258
0.00144974
0.00166505
0.0018883
0.00211923
0.00235761
0.00260314
0.00285551
0.00311438
0.00337936
0.00365004
0.00392597
0.00420668
0.00449166
0.00478037
0.00507227
0.00536675
0.00566317
0.0059608
0.00625892
0.00655674
0.00685345
0.00714823
0.00744023
0.00772856
0.00801232
0.00829063
0.00856256
0.00882719
0.00908361
0.0093309
0.00956817
0.00979455
0.0100092
0.0102114
0.0104004
0.0105755
0.0107362
0.0108818
0.0110118
0.0111259
0.0112237
0.0113051
0.0113699
0.0114182
0.0114499
0.0114652
0.0114644
0.0114478
0.0114158
0.0113688
0.0113073
0.011232
0.0111434
0.0110421
0.0109289
0.0108044
0.0106691
0.0105236
0.0103696
0.0102085
0.0100261
0.00980936
0.000278947
4.35343e-05
-0.000147029
-0.000307675
-0.0004552
-0.000588936
-0.000708112
-0.000813242
-0.000904863
-0.000983398
-0.00104924
-0.00110277
-0.00114436
-0.00117433
-0.00119302
-0.00120071
-0.00119766
-0.0011841
-0.00116021
-0.00112618
-0.00108215
-0.00102827
-0.000964689
-0.000891514
-0.000808842
-0.000716747
-0.000615283
-0.000504493
-0.00038442
-0.000255111
-0.000116616
3.10146e-05
0.000187736
0.000353502
0.000528261
0.000711944
0.000904453
0.00110566
0.00131539
0.00153347
0.0017597
0.00199384
0.00223565
0.00248486
0.00274117
0.00300423
0.00327366
0.00354905
0.00382996
0.00411594
0.00440647
0.00470103
0.00499904
0.00529989
0.00560291
0.00590738
0.00621252
0.00651754
0.0068216
0.00712386
0.00742344
0.00771942
0.00801088
0.00829687
0.00857643
0.00884862
0.00911246
0.00936701
0.00961132
0.00984449
0.0100657
0.010274
0.0104688
0.0106493
0.0108148
0.0109647
0.0110985
0.0112159
0.0113163
0.0113997
0.0114659
0.0115149
0.0115467
0.0115615
0.0115595
0.011541
0.0115066
0.0114566
0.0113916
0.0113123
0.0112192
0.0111131
0.0109947
0.0108646
0.0107236
0.0105723
0.0104123
0.0102453
0.0100567
0.00983305
0.000157436
-8.46453e-05
-0.000280715
-0.000446077
-0.000597977
-0.000735742
-0.000858584
-0.000967017
-0.00106158
-0.0011427
-0.0012108
-0.00126629
-0.00130954
-0.00134094
-0.00136082
-0.0013695
-0.00136722
-0.00135423
-0.00133073
-0.00129693
-0.00125299
-0.00119908
-0.00113534
-0.00106188
-0.000978796
-0.000886144
-0.000783979
-0.000672347
-0.00055129
-0.000420853
-0.000281076
-0.000131995
2.63599e-05
0.000193956
0.000370746
0.000556659
0.000751594
0.00095542
0.00116798
0.0013891
0.00161859
0.00185624
0.00210182
0.00235507
0.00261567
0.00288331
0.00315759
0.00343814
0.00372451
0.00401626
0.00431287
0.00461382
0.00491852
0.00522633
0.00553657
0.00584848
0.00616128
0.00647415
0.00678624
0.00709667
0.00740453
0.00770887
0.00800874
0.00830315
0.00859109
0.00887156
0.00914356
0.00940608
0.00965815
0.00989881
0.0101272
0.0103423
0.0105435
0.0107299
0.0109008
0.0110556
0.0111937
0.0113146
0.0114181
0.0115038
0.0115716
0.0116215
0.0116536
0.0116679
0.0116647
0.0116445
0.0116076
0.0115546
0.011486
0.0114024
0.0113047
0.0111936
0.0110697
0.010934
0.0107871
0.0106297
0.0104635
0.0102904
0.0100953
0.00986445
1.97523e-05
-0.00022899
-0.000430567
-0.000600673
-0.000756993
-0.000898823
-0.00102536
-0.00113711