/*--------------------------------*- C++ -*----------------------------------*\
| =========                 |                                                 |
| \\      /  F ield         | OpenFOAM: The Open Source CFD Toolbox           |
|  \\    /   O peration     | Version:  2512                                  |
|   \\  /    A nd           | Website:  www.openfoam.com                      |
|    \\/     M anipulation  |                                                 |
\*---------------------------------------------------------------------------*/
FoamFile
{
    version     2.0;
    format      ascii;
    arch        "LSB;label=32;scalar=64";
    class       volScalarField;
    location    "0.5";
    object      p;
}
// * * * * * * * * * * * * * * * * * * * * * * * * * * * * * * * * * * * * * //

dimensions      [0 2 -2 0 0 0 0];

internalField   nonuniform List<scalar> 
10000
(
-1.42247e-08
2.25282e-06
-3.68473e-05
-0.000125819
-0.000250163
-0.000396911
-0.000557648
-0.000725891
-0.000896824
-0.00106648
-0.00123185
-0.00139042
-0.00154004
-0.00167914
-0.00180641
-0.00192086
-0.00202157
-0.00210807
-0.00217963
-0.00223599
-0.002277
-0.0023024
-0.00231215
-0.0023063
-0.0022849
-0.00224796
-0.00219547
-0.00212751
-0.0020442
-0.00194566
-0.00183202
-0.00170334
-0.00155964
-0.00140094
-0.00122749
-0.00103965
-0.000837791
-0.000622166
-0.000393004
-0.000150656
0.000104364
0.000371429
0.000649836
0.00093881
0.00123749
0.001545
0.00186047
0.00218286
0.00251091
0.00284332
0.00317885
0.00351625
0.00385422
0.00419122
0.00452565
0.00485592
0.0051805
0.00549779
0.00580619
0.0061041
0.00638998
0.00666226
0.00691941
0.0071599
0.00738223
0.00758515
0.00776765
0.00792877
0.00806763
0.00818343
0.00827557
0.00834368
0.00838757
0.00840725
0.00840293
0.00837503
0.00832419
0.00825136
0.00815773
0.00804467
0.00791363
0.00776625
0.00760441
0.00743027
0.00724618
0.00705462
0.00685829
0.00666013
0.00646333
0.00627125
0.00608742
0.00591544
0.00575897
0.0056217
0.00550733
0.00541939
0.00536075
0.00533292
0.00533504
0.00535676
-6.86998e-06
-2.1454e-05
-6.66633e-05
-0.000147687
-0.000254733
-0.00037923
-0.000516022
-0.000660627
-0.000808633
-0.000956759
-0.00110222
-0.00124245
-0.00137558
-0.00149986
-0.00161388
-0.00171662
-0.00180715
-0.0018847
-0.00194881
-0.00199895
-0.00203485
-0.00205637
-0.0020633
-0.00205557
-0.00203326
-0.00199636
-0.00194485
-0.00187872
-0.00179798
-0.00170272
-0.00159318
-0.00146945
-0.00133156
-0.00117957
-0.00101364
-0.000834033
-0.000641092
-0.000435141
-0.000216469
1.45893e-05
0.000257534
0.000511765
0.000776619
0.0010513
0.00133498
0.00162691
0.00192623
0.00223187
0.00254263
0.0028573
0.00317472
0.00349378
0.00381323
0.00413157
0.00444726
0.00475892
0.00506509
0.00536425
0.0056549
0.00593562
0.00620496
0.00646147
0.00670374
0.0069303
0.00713978
0.00733106
0.00750327
0.00765556
0.00778705
0.00789701
0.00798496
0.00805061
0.00809377
0.00811448
0.00811296
0.00808965
0.00804519
0.00798052
0.00789678
0.00779523
0.00767724
0.00754434
0.00739834
0.00724131
0.00707542
0.00690295
0.00672639
0.00654843
0.00637204
0.0062003
0.00603635
0.00588336
0.00574443
0.00562262
0.00552088
0.00544188
0.00538751
0.0053587
0.00535674
0.00537845
1.19088e-05
-1.31104e-05
-6.24562e-05
-0.00013947
-0.000236492
-0.000347463
-0.000468936
-0.000597312
-0.000729323
-0.000861988
-0.000992567
-0.00111899
-0.00123939
-0.00135196
-0.00145557
-0.00154894
-0.00163118
-0.00170154
-0.00175949
-0.00180446
-0.00183614
-0.00185436
-0.00185891
-0.00184965
-0.00182655
-0.00178965
-0.00173897
-0.00167443
-0.00159598
-0.00150366
-0.00139767
-0.00127817
-0.0011452
-0.000998836
-0.000839282
-0.000666736
-0.000481423
-0.000283652
-7.38083e-05
0.000147755
0.000380624
0.000624193
0.000877765
0.00114059
0.0014119
0.00169102
0.00197713
0.00226912
0.00256579
0.00286607
0.00316889
0.00347319
0.00377773
0.0040811
0.00438186
0.00467868
0.00497021
0.00525495
0.00553152
0.00579863
0.00605496
0.00629909
0.00652962
0.00674518
0.00694453
0.00712667
0.0072908
0.0074361
0.00756173
0.00766703
0.00775159
0.00781518
0.00785765
0.00787899
0.00787943
0.00785943
0.00781968
0.0077611
0.00768475
0.00759182
0.00748359
0.00736155
0.00722745
0.00708323
0.00693094
0.00677269
0.00661076
0.00644769
0.00628625
0.00612929
0.00597965
0.00584013
0.00571342
0.00560218
0.00550892
0.00543592
0.0053848
0.00535658
0.00535481
0.0053808
5.20115e-05
1.85517e-05
-3.45101e-05
-0.000109254
-0.00020044
-0.000303367
-0.000415044
-0.000532621
-0.00065346
-0.000774807
-0.000894476
-0.00101041
-0.00112071
-0.00122414
-0.00131925
-0.0014049
-0.00148028
-0.00154468
-0.00159743
-0.00163804
-0.00166614
-0.00168153
-0.00168406
-0.00167351
-0.00164978
-0.00161295
-0.00156299
-0.0014998
-0.00142339
-0.00133388
-0.00123128
-0.00111562
-0.000986993
-0.000845634
-0.000691743
-0.00052544
-0.000346918
-0.00015648
4.5529e-05
0.00025877
0.000482829
0.000717096
0.000960845
0.00121339
0.00147409
0.00174228
0.00201708
0.00229739
0.00258213
0.0028703
0.00316089
0.00345284
0.00374495
0.00403588
0.0043243
0.00460892
0.00488838
0.00516127
0.00542634
0.0056824
0.00592816
0.00616222
0.00638321
0.00658983
0.00678096
0.00695569
0.00711326
0.00725287
0.00737369
0.00747511
0.00755682
0.00761862
0.00766033
0.00768192
0.00768366
0.00766605
0.00762979
0.00757574
0.00750493
0.00741846
0.00731759
0.00720377
0.00707866
0.00694413
0.00680208
0.00665447
0.00650345
0.00635141
0.00620097
0.00605477
0.00591539
0.0057853
0.00566693
0.00556265
0.00547477
0.00540542
0.00535614
0.00532823
0.00532645
0.00535393
0.000115339
7.15718e-05
1.32833e-05
-6.1382e-05
-0.00014984
-0.00024787
-0.00035305
-0.000462996
-0.000575226
-0.000687812
-0.000798671
-0.000905823
-0.00100779
-0.00110327
-0.00119093
-0.00126985
-0.00133908
-0.00139803
-0.00144608
-0.00148272
-0.00150756
-0.00152039
-0.00152102
-0.00150929
-0.00148514
-0.00144851
-0.00139928
-0.00133741
-0.00126302
-0.0011762
-0.00107691
-0.000965075
-0.000840817
-0.000704374
-0.000555944
-0.000395641
-0.000223658
-4.03083e-05
0.000154136
0.000359423
0.000575081
0.000800431
0.00103483
0.00127772
0.00152848
0.00178643
0.00205063
0.00232005
0.00259374
0.00287077
0.00315013
0.00343076
0.00371153
0.00399117
0.00426841
0.004542
0.00481059
0.00507283
0.00532761
0.00557384
0.00581021
0.00603528
0.00624775
0.00644642
0.00663028
0.00679846
0.00695019
0.00708468
0.00720117
0.00729911
0.00737822
0.00743829
0.00747914
0.00750074
0.00750339
0.00748763
0.00745417
0.00740382
0.00733752
0.00725634
0.00716151
0.00705446
0.0069368
0.00681026
0.00667661
0.00653769
0.00639553
0.00625242
0.00611081
0.00597314
0.00584175
0.00571884
0.00560659
0.00550719
0.00542278
0.00535533
0.00530637
0.00527732
0.00527312
0.00529727
0.000202491
0.000145834
7.97393e-05
2.20549e-06
-8.62213e-05
-0.000182436
-0.000284015
-0.000388961
-0.000495355
-0.000601395
-0.00070536
-0.000805537
-0.000900668
-0.000989501
-0.00107093
-0.00114401
-0.00120795
-0.0012621
-0.00130598
-0.00133908
-0.00136101
-0.00137158
-0.00137058
-0.00135781
-0.0013333
-0.00129698
-0.00124861
-0.00118819
-0.00111586
-0.00103164
-0.000935482
-0.000827367
-0.000707434
-0.000575848
-0.000432718
-0.000278204
-0.000112539
6.4038e-05
0.000251305
0.000448991
0.000656611
0.000873506
0.00109911
0.00133295
0.00157444
0.00182282
0.00207718
0.00233655
0.00260008
0.00286693
0.00313606
0.00340641
0.00367693
0.00394645
0.00421368
0.00447738
0.00473625
0.00498908
0.00523484
0.00547244
0.00570054
0.00591772
0.00612271
0.00631446
0.006492
0.00665445
0.00680106
0.00693107
0.00704374
0.00713861
0.00721538
0.00727383
0.00731374
0.00733514
0.00733835
0.00732397
0.00729267
0.00724521
0.00718244
0.00710544
0.00701541
0.00691377
0.00680204
0.00668186
0.00655485
0.00642274
0.0062875
0.00615131
0.00601647
0.00588522
0.00575967
0.0056418
0.00553362
0.00543713
0.00535432
0.00528701
0.00523666
0.00520471
0.00519558
0.00521232
0.000309782
0.000237756
0.00016147
7.85242e-05
-1.26193e-05
-0.000109423
-0.000209845
-0.000312298
-0.000415086
-0.000516632
-0.000615558
-0.000710484
-0.000800174
-0.000883601
-0.000959879
-0.00102812
-0.00108764
-0.00113775
-0.00117802
-0.00120807
-0.00122755
-0.00123618
-0.00123381
-0.0012203
-0.00119556
-0.00115954
-0.00111211
-0.00105328
-0.000983081
-0.00090144
-0.000808346
-0.00070386
-0.000588092
-0.000461183
-0.000323215
-0.000174298
-1.46649e-05
0.00015546
0.00033591
0.000526407
0.00072642
0.000935341
0.00115274
0.00137822
0.00161111
0.00185061
0.00209588
0.0023461
0.00260047
0.0028581
0.00311797
0.00337913
0.00364057
0.00390113
0.00415951
0.00441449
0.00466489
0.00490958
0.00514756
0.00537775
0.00559875
0.00580914
0.00600775
0.00619362
0.0063658
0.0065234
0.00666565
0.00679182
0.00690125
0.00699349
0.00706822
0.00712517
0.00716413
0.00718517
0.00718866
0.00717521
0.00714547
0.0071001
0.00703996
0.00696607
0.00687967
0.00678211
0.00667485
0.0065594
0.00643728
0.00631017
0.00617997
0.00604876
0.0059187
0.00579182
0.00567002
0.00555515
0.00544905
0.00535359
0.00527057
0.00520164
0.00514818
0.00511159
0.00509536
0.00510165
0.000432359
0.000342841
0.000254852
0.000164483
6.83042e-05
-3.12264e-05
-0.000132606
-0.000234459
-0.000335454
-0.000434324
-0.000529886
-0.000620982
-0.000706531
-0.00078577
-0.000857925
-0.000922207
-0.000978004
-0.00102482
-0.00106215
-0.00108963
-0.00110701
-0.00111407
-0.00111067
-0.00109666
-0.00107188
-0.00103631
-0.000989934
-0.000932726
-0.000864648
-0.000785607
-0.000695587
-0.0005947
-0.000483019
-0.000360599
-0.000227575
-8.41071e-05
6.97032e-05
0.000233735
0.000407737
0.000591343
0.000784112
0.000985597
0.00119542
0.0014131
0.00163798
0.00186928
0.00210625
0.00234814
0.00259419
0.00284352
0.00309513
0.00334812
0.00360155
0.00385422
0.00410484
0.00435224
0.00459534
0.00483308
0.00506449
0.00528839
0.00550337
0.00570805
0.00590135
0.00608234
0.00625008
0.00640365
0.00654228
0.00666529
0.00677206
0.00686212
0.0069351
0.00699071
0.00702875
0.00704934
0.0070529
0.00704003
0.0070113
0.00696735
0.00690899
0.00683728
0.00675343
0.00665876
0.00655461
0.00644239
0.00632358
0.00619981
0.00607294
0.00594494
0.00581781
0.00569341
0.00557348
0.00545972
0.0053539
0.00525772
0.0051728
0.00510061
0.00504245
0.00499965
0.00497453
0.00496819
0.000565436
0.000457227
0.000356071
0.000256765
0.000154133
4.9963e-05
-5.41092e-05
-0.000156988
-0.000257808
-0.000355502
-0.000449064
-0.000537591
-0.000620269
-0.000696404
-0.000765337
-0.000826506
-0.000879329
-0.00092343
-0.000958396
-0.000983844
-0.000999549
-0.0010054
-0.00100125
-0.000986943
-0.000962339
-0.000927461
-0.000882319
-0.000826776
-0.000760766
-0.000684342
-0.000597485
-0.000500144
-0.000392402
-0.000274407
-0.000146245
-7.97538e-06
0.000140315
0.000298482
0.000466271
0.00064334
0.000829308
0.00102382
0.00122657
0.00143702
0.00165446
0.0018782
0.0021076
0.00234196
0.00258051
0.00282239
0.00306665
0.00331246
0.00355887
0.00380466
0.00404854
0.00428944
0.00452637
0.00475833
0.00498425
0.00520291
0.0054129
0.00561291
0.00580193
0.00597902
0.00614319
0.00629352
0.00642927
0.0065498
0.00665451
0.00674285
0.0068144
0.00686885
0.00690606
0.00692619
0.00692968
0.00691709
0.00688893
0.0068458
0.00678852
0.00671815
0.0066359
0.00654301
0.00644072
0.00633038
0.00621345
0.00609153
0.00596643
0.00584
0.0057141
0.00559043
0.00547063
0.00535631
0.00524911
0.0051506
0.00506224
0.00498531
0.00492104
0.00487067
0.00483527
0.00481483
0.000705128
0.000577066
0.00046166
0.00035244
0.000241937
0.000131893
2.38e-05
-8.15379e-05
-0.000183476
-0.000281235
-0.000374005
-0.000461109
-0.000541951
-0.000615957
-0.000682608
-0.000741425
-0.000792011
-0.000833999
-0.000867098
-0.000891009
-0.000905512
-0.000910528
-0.000905899
-0.000891483
-0.00086732
-0.000833382
-0.000789555
-0.000735771
-0.000671984
-0.000598193
-0.000514422
-0.000420634
-0.000316827
-0.000203134
-7.96727e-05
5.35541e-05
0.00019654
0.000349109
0.000510939
0.000681759
0.000861346
0.00104941
0.00124556
0.00144924
0.00165979
0.00187663
0.00209918
0.00232674
0.00255854
0.00279378
0.00303161
0.00327117
0.0035115
0.00375133
0.00398946
0.00422492
0.00445679
0.00468402
0.00490549
0.00511991
0.00532593
0.00552229
0.00570801
0.00588211
0.00604357
0.00619145
0.00632508
0.00644382
0.00654705
0.00663413
0.00670459
0.00675813
0.00679467
0.0068144
0.00681775
0.0068052
0.00677724
0.00673444
0.00667764
0.0066079
0.00652638
0.00643424
0.00633269
0.00622301
0.00610667
0.00598526
0.00586049
0.00573413
0.00560787
0.00548334
0.00536208
0.00524565
0.00513556
0.00503327
0.00494005
0.00485706
0.00478544
0.00472639
0.00467968
0.00464418
0.000847723
0.000699028
0.000568718
0.000448549
0.000329224
0.00021231
9.91264e-05
-9.79396e-06
-0.00011394
-0.000212775
-0.000305754
-0.000392437
-0.000472349
-0.000545072
-0.000610266
-0.000667492
-0.000716504
-0.000757008
-0.000788761
-0.00081158
-0.000825294
-0.000829831
-0.000825062
-0.000810858
-0.000787327
-0.000754514
-0.000712186
-0.000660228
-0.000598743
-0.000527737
-0.000447084
-0.000356742
-0.000256824
-0.000147436
-2.85519e-05
9.98734e-05
0.000237754
0.000384868
0.000540968
0.000705915
0.000879562
0.00106159
0.00125156
0.00144894
0.00165317
0.00186376
0.00208012
0.00230156
0.00252736
0.00275679
0.00298903
0.00322322
0.00345832
0.0036931
0.00392646
0.00415752
0.00438537
0.00460887
0.00482684
0.005038
0.00524105
0.00543476
0.00561811
0.0057901
0.00594967
0.00609592
0.00622819
0.00634585
0.00644817
0.00653445
0.00660419
0.00665713
0.00669323
0.00671268
0.00671587
0.0067032
0.00667515
0.00663229
0.00657548
0.00650574
0.00642417
0.00633189
0.00623006
0.00611997
0.00600306
0.00588092
0.00575518
0.00562749
0.00549945
0.00537258
0.00524842
0.00512843
0.00501408
0.00490666
0.00480734
0.00471711
0.00463709
0.00456844
0.00450966
0.00445856
0.000989755
0.000820274
0.000674396
0.000542584
0.000413815
0.000289227
0.000170019
5.66417e-05
-5.0631e-05
-0.000151501
-0.000245592
-0.000332672
-0.000412449
-0.000484634
-0.000549019
-0.000605366
-0.000653435
-0.000693026
-0.000723947
-0.000746135
-0.00075949
-0.000763847
-0.000759206
-0.000745626
-0.00072306
-0.000691433
-0.000650694
-0.000600816
-0.000541788
-0.000473554
-0.000396035
-0.000309218
-0.000213189
-0.000107986
6.46962e-06
0.00013021
0.000263103
0.000404943
0.000555596
0.000715029
0.000883111
0.00105948
0.00124367
0.00143524
0.00163371
0.00183864
0.00204943
0.00226541
0.00248595
0.00271037
0.00293785
0.00316746
0.00339816
0.00362879
0.00385835
0.00408601
0.0043108
0.00453151
0.00474691
0.00495578
0.00515683
0.00534884
0.00553074
0.00570148
0.00585999
0.00600543
0.00613712
0.00625436
0.00635635
0.00644232
0.00651177
0.00656448
0.00660042
0.00661977
0.00662282
0.00660996
0.00658162
0.00653841
0.00648117
0.00641089
0.00632862
0.00623541
0.00613242
0.00602095
0.00590245
0.00577846
0.00565055
0.00552027
0.00538912
0.00525861
0.0051302
0.00500535
0.00488544
0.00477169
0.0046651
0.00456658
0.00447726
0.00439827
0.0043269
0.00425987
0.00112812
0.000937741
0.000776084
0.000632357
0.000493424
0.00036051
0.000234699
0.0001162
5.02156e-06
-9.86829e-05
-0.000194691
-0.000282901
-0.000363243
-0.000435597
-0.000499839
-0.000555872
-0.0006035
-0.000642709
-0.000673393
-0.000695365
-0.00070863
-0.000713237
-0.000709167
-0.000696416
-0.000674987
-0.000644829
-0.000605904
-0.000558225
-0.000501754
-0.00043639
-0.000362075
-0.000278825
-0.00018667
-8.55712e-05
2.45573e-05
0.000143689
0.000271689
0.000408451
0.000553952
0.000708203
0.000871036
0.00104206
0.00122088
0.00140712
0.00160038
0.0018002
0.00200601
0.00221719
0.00243319
0.00265337
0.00287684
0.00310264
0.00332975
0.00355712
0.00378384
0.00400905
0.00423169
0.0044505
0.00466426
0.00487178
0.00507179
0.00526303
0.00544435
0.00561468
0.005773
0.00591845
0.00605033
0.00616783
0.00627008
0.00635626
0.0064259
0.0064788
0.00651492
0.00653438
0.00653741
0.00652434
0.00649562
0.00645186
0.00639388
0.00632263
0.00623908
0.00614427
0.00603935
0.00592566
0.00580464
0.0056778
0.00554663
0.00541261
0.00527717
0.00514179
0.00500793
0.00487703
0.0047504
0.00462917
0.00451426
0.00440651
0.00430708
0.00421716
0.00413279
0.0040497
0.00125992
0.0010488
0.00087145
0.000715335
0.000565887
0.000424217
0.000291343
0.000167138
5.14599e-05
-5.56609e-05
-0.000154199
-0.000244198
-0.000325779
-0.000398921
-0.00046359
-0.000519845
-0.000567634
-0.0006069
-0.000637697
-0.000659938
-0.000673562
-0.000678743
-0.000675579
-0.000663956
-0.000643864
-0.000615395
-0.000578549
-0.000533249
-0.000479421
-0.000417017
-0.000346019
-0.000266395
-0.000178089
-8.10346e-05
2.4803e-05
0.000139358
0.000262568
0.000394461
0.00053509
0.000684429
0.000842272
0.00100826
0.0011821
0.00136349
0.00155204
0.00174726
0.00194865
0.00215569
0.00236787
0.00258451
0.00280467
0.00302739
0.00325173
0.00347674
0.00370153
0.00392517
0.00414653
0.00436432
0.00457737
0.00478449
0.00498439
0.00517574
0.00535736
0.00552816
0.00568714
0.00583345
0.00596627
0.00608472
0.00618784
0.00627482
0.00634519
0.00639875
0.00643543
0.00645527
0.00645843
0.00644523
0.00641612
0.00637171
0.00631279
0.00624022
0.00615493
0.00605794
0.00595043
0.00583377
0.00570942
0.00557883
0.00544342
0.00530461
0.0051638
0.00502246
0.00488206
0.00474401
0.00460958
0.00447983
0.00435565
0.00423782
0.0041276
0.00402622
0.00392855
0.00382931
0.00138271
0.00115113
0.000957927
0.000789464
0.000629358
0.000478509
0.000338071
0.000207734
8.71641e-05
-2.38761e-05
-0.000125503
-0.000217808
-0.000301085
-0.00037557
-0.000441268
-0.0004982
-0.000546588
-0.000586452
-0.000617754
-0.000640565
-0.000655006
-0.000661209
-0.000659194
-0.000648908
-0.000630454
-0.000603971
-0.000569409
-0.00052663
-0.000475589
-0.000416303
-0.000348738
-0.000272773
-0.0001883
-9.52989e-05
6.21357e-06
0.000116216
0.000234772
0.00036201
0.000497973
0.000642588
0.000795665
0.000956944
0.0011262
0.00130317
0.00148742
0.00167853
0.00187607
0.0020796
0.00228862
0.00250236
0.00271987
0.00294025
0.00316265
0.00338618
0.0036099
0.0038328
0.00405372
0.00427138
0.00448463
0.00469229
0.00489299
0.00508534
0.00526812
0.00544028
0.00560083
0.00574882
0.00588337
0.00600347
0.00610812
0.00619652
0.00626821
0.00632297
0.00636065
0.0063812
0.00638473
0.00637156
0.00634214
0.00629708
0.00623708
0.00616293
0.00607552
0.00597587
0.00586522
0.00574496
0.00561654
0.00548139
0.00534086
0.0051963
0.00504915
0.00490087
0.00475294
0.00460675
0.00446353
0.00432431
0.00418996
0.0040613
0.00393969
0.00382642
0.00371519
0.00359974
0.00149424
0.00124247
0.00103361
0.00085276
0.000681784
0.000521627
0.000373334
0.000236487
0.000110569
-4.756e-06
-0.000109814
-0.000204962
-0.000290462
-0.000366629
-0.000433739
-0.000491935
-0.000541348
-0.00058212
-0.000614352
-0.000638196
-0.000653827
-0.000661338
-0.000660737
-0.0006521
-0.00063562
-0.00061138
-0.000579264
-0.000539169
-0.000491129
-0.00043515
-0.000371109
-0.000298827
-0.000218241
-0.000129388
-3.22569e-05
7.325e-05
0.000187301
0.000310037
0.000441455
0.000581482
0.000730017
0.000886896
0.00105193
0.00122482
0.00140517
0.00159263
0.00178688
0.0019875
0.00219393
0.00240536
0.00262086
0.00283963
0.00306091
0.00328377
0.00350723
0.0037302
0.00395151
0.00416993
0.00438432
0.00459343
0.00479582
0.00499004
0.00517491
0.00534936
0.00551238
0.00566293
0.00579999
0.00592247
0.00602937
0.0061199
0.00619359
0.00625014
0.0062893
0.00631094
0.00631516
0.00630227
0.00627273
0.00622708
0.00616595
0.00609005
0.00600023
0.00589755
0.00578329
0.00565889
0.00552578
0.00538533
0.00523886
0.00508772
0.00493335
0.00477724
0.00462089
0.00446565
0.00431272
0.00416313
0.00401781
0.00387764
0.00374409
0.00361852
0.00349349
0.00336177
0.0015925
0.00132082
0.00109648
0.00090325
0.000721462
0.000551857
0.000395453
0.000251876
0.000120365
3.37952e-07
-0.00010857
-0.000206836
-0.000294935
-0.00037327
-0.000442178
-0.000501963
-0.000552783
-0.00059485
-0.00062843
-0.000653724
-0.000670846
-0.000679903
-0.000681041
-0.000674434
-0.000660226
-0.000638426
-0.000608948
-0.000571783
-0.000526979
-0.000474457
-0.000414017
-0.000345512
-0.000268956
-0.000184378
-9.16533e-05
9.43077e-06
0.00011907
0.000237364
0.000364295
0.00049986
0.00064407
0.000796819
0.000957895
0.001127
0.00130381
0.00148809
0.00167956
0.00187777
0.00208211
0.00229176
0.00250589
0.00272379
0.0029447
0.00316767
0.00339161
0.00361543
0.00383798
0.00405807
0.00427451
0.00448597
0.00469094
0.00488796
0.00507586
0.00525358
0.00542002
0.005574
0.0057144
0.00584008
0.00595003
0.00604348
0.0061199
0.00617887
0.00622006
0.00624327
0.0062486
0.00623636
0.00620697
0.00616089
0.00609864
0.00602087
0.00592844
0.00582246
0.00570427
0.00557529
0.00543692
0.00529051
0.00513737
0.00497887
0.0048165
0.00465177
0.00448616
0.00432101
0.00415751
0.00399675
0.00383972
0.00368739
0.00354137
0.0034031
0.00326401
0.00311592
0.00167532
0.00138429
0.00114469
0.000939092
0.00074644
0.000567439
0.000402944
0.00025235
0.000114973
-9.92808e-06
-0.000122985
-0.000224714
-0.000315721
-0.000396564
-0.000467652
-0.000529306
-0.00058186
-0.000625655
-0.000660981
-0.000688013
-0.000706881
-0.000717812
-0.000721074
-0.000716819
-0.000705104
-0.00068596
-0.0006594
-0.00062545
-0.000584081
-0.000535137
-0.000478433
-0.000413898
-0.000341563
-0.000261361
-0.000173041
-7.63465e-05
2.88769e-05
0.000142705
0.000265181
0.000396414
0.000536488
0.000685297
0.000842606
0.00100817
0.00118178
0.00136329
0.00155241
0.00174863
0.00195129
0.00215968
0.00237307
0.00259079
0.00281205
0.00303581
0.00326094
0.00348639
0.00371104
0.00393369
0.00415308
0.00436778
0.00457623
0.00477702
0.00496898
0.00515098
0.0053218
0.00548013
0.00562475
0.00575453
0.00586845
0.00596571
0.00604567
0.00610778
0.00615161
0.00617697
0.00618395
0.00617283
0.00614394
0.00609763
0.00603435
0.0059547
0.00585959
0.00575017
0.00562779
0.00549387
0.00534976
0.00519679
0.00503631
0.00486979
0.00469872
0.00452464
0.004349
0.00417314
0.00399826
0.00382556
0.00365613
0.00349103
0.00333202
0.00318062
0.00302715
0.00286249
0.00174108
0.00143098
0.00117634
0.000958596
0.000755141
0.000566653
0.00039405
0.000236453
9.30162e-05
-3.6993e-05
-0.000154362
-0.000259814
-0.000354049
-0.000437665
-0.000511182
-0.000575032
-0.000629693
-0.000675576
-0.000712935
-0.00074195
-0.000762885
-0.000776091
-0.000781823
-0.000780155
-0.000771156
-0.000754964
-0.000731648
-0.000701167
-0.000663397
-0.000618193
-0.000565457
-0.000505151
-0.000437215
-0.000361451
-0.000277554
-0.000185313
-8.46085e-05
2.46928e-05
0.000142754
0.000269766
0.000405816
0.000550774
0.000704442
0.000866687
0.00103742
0.0012165
0.00140358
0.00159811
0.00179949
0.00200712
0.00222036
0.00243853
0.00266074
0.00288591
0.00311293
0.00334081
0.00356842
0.00379452
0.00401771
0.00423653
0.00444944
0.00465503
0.00485211
0.00503944
0.00521563
0.00537928
0.00552911
0.005664
0.00578291
0.00588494
0.00596931
0.00603536
0.0060826
0.00611083
0.0061201
0.00611065
0.00608268
0.00603644
0.0059723
0.00589089
0.00579314
0.00568023
0.0055535
0.00541433
0.00526404
0.00510401
0.00493565
0.00476049
0.0045801
0.00439599
0.0042096
0.00402226
0.00383528
0.00364993
0.00346743
0.00328897
0.00311643
0.00295142
0.00278319
0.00260168
0.00178797
0.00145924
0.0011899
0.000960128
0.000745974
0.000548047
0.000367251
0.000202637
5.31081e-05
-8.21829e-05
-0.000204061
-0.000313427
-0.000411084
-0.000497709
-0.000573911
-0.000640303
-0.000697415
-0.000745638
-0.000785251
-0.000816556
-0.000839949
-0.000855791
-0.000864246
-0.000865393
-0.00085942
-0.000846539
-0.000826762
-0.000799946
-0.000765969
-0.000724779
-0.000676326
-0.000620493
-0.000557083
-0.000485833
-0.000406478
-0.000318861
-0.00022282
-0.000118093
-4.41717e-06
0.000118406
0.000250432
0.000391557
0.000541694
0.000700833
0.000868933
0.0010458
0.00123104
0.00142414
0.00162461
0.00183197
0.00204558
0.0022647
0.00248839
0.00271556
0.00294518
0.00317627
0.00340768
0.00363802
0.00386587
0.00408974
0.00430811
0.00451959
0.00472289
0.00491661
0.00509921
0.00526924
0.00542539
0.00556652
0.00569153
0.00579937
0.00588912
0.00596003
0.00601157
0.00604352
0.00605587
0.00604872
0.00602218
0.00597638
0.00591168
0.00582875
0.00572853
0.00561219
0.00548102
0.00533636
0.00517956
0.00501203
0.00483532
0.00465102
0.00446072
0.00426594
0.0040681
0.00386858
0.00366879
0.00347013
0.00327396
0.00308153
0.00289488
0.00271574
0.00253229
0.00233356
0.00181426
0.00146737
0.00118365
0.00094211
0.000717397
0.000510131
0.000321148
0.000149456
-6.18266e-06
-0.000146831
-0.000273398
-0.000386837
-0.000488044
-0.000577877
-0.000657078
-0.000726317
-0.000786111
-0.000836876
-0.000879029
-0.00091301
-0.000939222
-0.000957946
-0.00096935
-0.000973637
-0.000971081
-0.000961837
-0.000945823
-0.000922893
-0.00089302
-0.000856211
-0.000812349
-0.000761174
-0.00070242
-0.00063586
-0.000561288
-0.000478518
-0.000387267
-0.000287158
-0.00017791
-5.93621e-05
6.85531e-05
0.000205844
0.000352558
0.000508746
0.000674336
0.000849086
0.00103261
0.00122452
0.00142445
0.00163194
0.00184634
0.00206683
0.00229246
0.00252222
0.00275513
0.00299019
0.00322613
0.00346151
0.00369486
0.00392475
0.00414966
0.00436815
0.00457877
0.00477995
0.00497009
0.00514766
0.00531136
0.00545998
0.00559227
0.00570704
0.00580326
0.00588009
0.00593699
0.00597365
0.00598996
0.00598586
0.00596134
0.00591649
0.00585169
0.00576761
0.0056652
0.00554557
0.00540995
0.00525966
0.00509608
0.00492075
0.0047353
0.00454139
0.00434064
0.00413456
0.00392459
0.00371222
0.00349897
0.00328638
0.0030759
0.00286889
0.00266752
0.00247367
0.00227448
0.00205804
0.00181844
0.00145372
0.00115591
0.000902888
0.000667834
0.000451353
0.000254292
7.55343e-05
-8.62694e-05
-0.000232331
-0.000363665
-0.00048127
-0.000586214
-0.000679495
-0.000761951
-0.000834223
-0.000896868
-0.00095045
-0.00099552
-0.00103253
-0.0010618
-0.00108364
-0.00109832
-0.00110615
-0.00110737
-0.00110202
-0.00109001
-0.00107131
-0.00104596
-0.00101389
-0.000974857
-0.000928523
-0.000874657
-0.000813093
-0.000743605
-0.000665886
-0.00057954
-0.000484163
-0.000379509
-0.000265417
-0.00014172
-8.26107e-06
0.000135089
0.000288362
0.000451432
0.000624068
0.000805992
0.00099694
0.00119663
0.00140457
0.00162005
0.00184226
0.0020703
0.00230322
0.00254008
0.00277977
0.00302094
0.00326211
0.00350187
0.00373879
0.00397135
0.00419796
0.004417
0.00462679
0.00482566
0.00501207
0.00518465
0.00534207
0.00548291
0.00560586
0.00570976
0.00579375
0.00585719
0.00589967
0.00592092
0.00592073
0.00589898
0.00585576
0.00579145
0.00570673
0.00560251
0.00547983
0.00533984
0.00518387
0.0050134
0.00483005
0.00463556
0.00443162
0.00421989
0.0040019
0.00377918
0.00355331
0.00332596
0.00309881
0.00287339
0.00265113
0.00243437
0.00222517
0.00200962
0.0017749
0.00179894
0.00141687
0.00110525
0.000840909
0.000595744
0.000370254
0.000165237
-2.05611e-05
-0.000188547
-0.000340011
-0.000476121
-0.00059802
-0.00070692
-0.000803866
-0.000889709
-0.000965157
-0.00103091
-0.00108766
-0.00113597
-0.00117624
-0.00120881
-0.00123409
-0.00125247
-0.00126423
-0.00126949
-0.00126829
-0.00126066
-0.00124665
-0.00122623
-0.0011992
-0.00116523
-0.00112402
-0.00107541
-0.00101921
-0.000955086
-0.000882612
-0.000801357
-0.000710954
-0.000611164
-0.000501737
-0.00038236
-0.000252769
-0.000112836
3.74158e-05
0.000197864
0.000368374
0.000548806
0.000738989
0.000938635
0.00114721
0.00136399
0.00158824
0.00181914
0.00205578
0.00229715
0.00254206
0.00278912
0.00303689
0.00328398
0.00352896
0.00377024
0.00400607
0.00423467
0.00445429
0.0046632
0.00485983
0.0050427
0.0052103
0.00536107
0.00549354
0.00560652
0.00569904
0.00577036
0.0058199
0.00584721
0.00585192
0.00583386
0.0057931
0.00573004
0.00564533
0.00553978
0.00541437
0.00527021
0.00510866
0.00493129
0.00473982
0.00453604
0.00432171
0.0040985
0.00386803
0.00363194
0.00339196
0.00314989
0.00290752
0.00266647
0.00242824
0.00219536
0.00197011
0.0017375
0.0014838
0.0017542
0.00135528
0.00103023
0.00075482
0.000499733
0.000265413
5.2547e-05
-0.000140217
-0.000314318
-0.000471157
-0.000612105
-0.000738465
-0.000851456
-0.000952166
-0.00104151
-0.00112037
-0.00118956
-0.00124978
-0.00130155
-0.00134531
-0.0013815
-0.00141066
-0.00143312
-0.00144908
-0.00145866
-0.00146202
-0.00145927
-0.0014504
-0.00143525
-0.00141353
-0.00138496
-0.0013493
-0.00130639
-0.00125591
-0.00119742
-0.00113044
-0.0010546
-0.000969527
-0.00087491
-0.000770354
-0.00065543
-0.000529853
-0.000393539
-0.00024652
-8.88284e-05
7.95406e-05
0.000258553
0.00044806
0.000647734
0.000857034
0.00107531
0.00130192
0.0015361
0.00177693
0.0020233
0.00227397
0.00252759
0.00278275
0.00303812
0.00329219
0.00354323
0.00378935
0.0040287
0.00425944
0.00447981
0.00468813
0.00488276
0.005062
0.00522415
0.00536767
0.00549126
0.00559385
0.00567453
0.0057325
0.00576712
0.00577791
0.00576464
0.00572737
0.00566647
0.00558252
0.00547624
0.00534854
0.00520054
0.00503364
0.00484949
0.00464987
0.00443664
0.00421158
0.00397644
0.00373297
0.00348294
0.00322824
0.00297082
0.00271256
0.00245514
0.00220017
0.00195039
0.00170832
0.00145789
0.00118439
0.00168272
0.00126743
0.000929384
0.000643248
0.000378394
0.000135369
-8.51554e-05
-0.000284704
-0.00046486
-0.000627139
-0.000773019
-0.000903905
-0.00102104
-0.0011256
-0.00121866
-0.00130121
-0.00137409
-0.00143798
-0.00149344
-0.00154101
-0.00158126
-0.00161467
-0.00164151
-0.00166197
-0.0016763
-0.00168472
-0.00168733
-0.00168398
-0.00167441
-0.00165839
-0.0016357
-0.00160611
-0.00156932
-0.0015249
-0.00147236
-0.00141129
-0.0013413
-0.00126197
-0.00117283
-0.00107338
-0.000963154
-0.000841892
-0.000709521
-0.000565995
-0.000411205
-0.000245027
-6.74593e-05
0.000121325
0.000320995
0.000531074
0.000751025
0.000980279
0.00121809
0.00146346
0.00171525
0.00197222
0.00223307
0.00249647
0.00276103
0.00302516
0.00328698
0.00354451
0.00379584
0.00403908
0.00427239
0.00449393
0.00470185
0.00489429
0.00506944
0.00522567
0.00536157
0.0054759
0.00556754
0.00563545
0.00567881
0.00569704
0.00568986
0.0056573
0.00559963
0.00551733
0.00541105
0.00528166
0.0051303
0.00495842
0.00476772
0.00456003
0.00433723
0.00410117
0.00385371
0.00359674
0.00333221
0.00306219
0.00278875
0.00251386
0.00223931
0.00196677
0.00169926
0.00143956
0.00117047
0.000876208
0.00158313
0.00115193
0.00080125
0.000504703
0.000230359
-2.11809e-05
-0.000249168
-0.000455349
-0.00064153
-0.000809296
-0.000960145
-0.00109553
-0.00121687
-0.00132545
-0.00142247
-0.00150893
-0.00158568
-0.00165345
-0.00171291
-0.00176471
-0.00180938
-0.00184733
-0.00187886