/*--------------------------------*- C++ -*----------------------------------*\
| =========                 |                                                 |
| \\      /  F ield         | OpenFOAM: The Open Source CFD Toolbox           |
|  \\    /   O peration     | Version:  2512                                  |
|   \\  /    A nd           | Website:  www.openfoam.com                      |
|    \\/     M anipulation  |                                                 |
\*---------------------------------------------------------------------------*/
FoamFile
{
    version     2.0;
    format      ascii;
    arch        "LSB;label=32;scalar=64";
    class       surfaceScalarField;
    location    "0.5";
    object      phi;
}
// * * * * * * * * * * * * * * * * * * * * * * * * * * * * * * * * * * * * * //

dimensions      [0 3 -1 0 0 0 0];

oriented        oriented;

internalField   nonuniform List<scalar> 
19800
(
7.77039e-11
-7.77472e-11
2.41862e-10
-1.64176e-10
4.04463e-10
-1.62592e-10
5.09771e-10
-1.05303e-10
5.28795e-10
-1.90172e-11
4.47612e-10
8.11776e-11
2.61396e-10
1.86229e-10
-2.93236e-11
2.90714e-10
-4.2074e-10
3.91417e-10
-9.07227e-10
4.86492e-10
-1.48209e-09
5.74872e-10
-2.13812e-09
6.56027e-10
-2.86788e-09
7.29764e-10
-3.66401e-09
7.9612e-10
-4.51929e-09
8.55273e-10
-5.42677e-09
9.07476e-10
-6.3798e-09
9.53038e-10
-7.37211e-09
9.92304e-10
-8.39775e-09
1.02564e-09
-9.45115e-09
1.05339e-09
-1.0527e-08
1.07588e-09
-1.16204e-08
1.09341e-09
-1.27267e-08
1.10628e-09
-1.38414e-08
1.11473e-09
-1.49604e-08
1.119e-09
-1.60797e-08
1.11926e-09
-1.71954e-08
1.11567e-09
-1.83037e-08
1.10836e-09
-1.94012e-08
1.09743e-09
-2.04841e-08
1.08294e-09
-2.15491e-08
1.06496e-09
-2.25926e-08
1.04349e-09
-2.36111e-08
1.01856e-09
-2.46013e-08
9.90156e-10
-2.55595e-08
9.58275e-10
-2.64824e-08
9.22899e-10
-2.73665e-08
8.84014e-10
-2.82081e-08
8.41601e-10
-2.90037e-08
7.9565e-10
-2.97499e-08
7.46169e-10
-3.0443e-08
6.93172e-10
-3.10798e-08
6.36697e-10
-3.16566e-08
5.76803e-10
-3.21701e-08
5.13563e-10
-3.26172e-08
4.47091e-10
-3.29947e-08
3.7752e-10
-3.32997e-08
3.05015e-10
-3.35295e-08
2.29787e-10
-3.36816e-08
1.52072e-10
-3.37537e-08
7.21369e-11
-3.3744e-08
-9.70141e-12
-3.36509e-08
-9.31022e-11
-3.34732e-08
-1.77691e-10
-3.32102e-08
-2.63046e-10
-3.28615e-08
-3.48721e-10
-3.24272e-08
-4.34249e-10
-3.19081e-08
-5.19118e-10
-3.13053e-08
-6.02802e-10
-3.06205e-08
-6.84762e-10
-2.98561e-08
-7.64438e-10
-2.90148e-08
-8.41249e-10
-2.81002e-08
-9.14627e-10
-2.71162e-08
-9.84003e-10
-2.60674e-08
-1.04881e-09
-2.49589e-08
-1.10849e-09
-2.37964e-08
-1.16252e-09
-2.2586e-08
-1.21041e-09
-2.13343e-08
-1.25166e-09
-2.00485e-08
-1.28586e-09
-1.87358e-08
-1.31263e-09
-1.74042e-08
-1.33163e-09
-1.60616e-08
-1.34257e-09
-1.47164e-08
-1.34526e-09
-1.33768e-08
-1.33954e-09
-1.20515e-08
-1.32534e-09
-1.07489e-08
-1.30263e-09
-9.47738e-09
-1.27148e-09
-8.24534e-09
-1.23204e-09
-7.06083e-09
-1.18451e-09
-5.93165e-09
-1.12918e-09
-4.86524e-09
-1.06641e-09
-3.8686e-09
-9.96642e-10
-2.94822e-09
-9.20383e-10
-2.11e-09
-8.38218e-10
-1.35917e-09
-7.50815e-10
-7.00238e-10
-6.58929e-10
-1.36833e-10
-5.63408e-10
3.28368e-10
-4.65207e-10
6.93783e-10
-3.65414e-10
9.59092e-10
-2.65301e-10
1.12548e-09
-1.66383e-10
1.19598e-09
-7.05102e-11
1.17599e-09
1.99883e-11
1.07396e-09
1.02036e-10
9.02535e-10
1.71426e-10
6.80262e-10
2.22269e-10
4.33914e-10
2.46341e-10
2.02047e-10
2.3187e-10
3.92735e-11
1.62784e-10
3.92729e-11
1.65696e-10
-2.43461e-10
4.25278e-10
-4.23735e-10
6.3312e-10
-3.70454e-10
6.91709e-10
-1.63887e-10
5.38162e-10
1.34522e-10
1.36571e-10
4.82765e-10
-5.29766e-10
8.52562e-10
-1.46439e-09
1.22534e-09
-2.66205e-09
1.58908e-09
-4.11169e-09
1.93613e-09
-5.79858e-09
2.26177e-09
-7.70576e-09
2.56322e-09
-9.81508e-09
2.83909e-09
-1.21079e-08
3.08892e-09
-1.45655e-08
3.31287e-09
-1.71695e-08
3.51152e-09
-1.99022e-08
3.68574e-09
-2.27464e-08
3.83653e-09
-2.56858e-08
3.96501e-09
-2.87047e-08
4.07231e-09
-3.17884e-08
4.15953e-09
-3.49227e-08
4.22773e-09
-3.80943e-08
4.27789e-09
-4.12905e-08
4.31089e-09
-4.4499e-08
4.32752e-09
-4.77082e-08
4.32846e-09
-5.09068e-08
4.31427e-09
-5.40839e-08
4.28543e-09
-5.72288e-08
4.24232e-09
-6.0331e-08
4.1852e-09
-6.33804e-08
4.11429e-09
-6.63666e-08
4.0297e-09
-6.92795e-08
3.93153e-09
-7.21092e-08
3.81978e-09
-7.48454e-08
3.69448e-09
-7.74781e-08
3.5556e-09
-7.99972e-08
3.40311e-09
-8.23926e-08
3.23702e-09
-8.46543e-08
3.05734e-09
-8.67723e-08
2.86414e-09
-8.87366e-08
2.65754e-09
-9.05376e-08
2.43771e-09
-9.21658e-08
2.20493e-09
-9.36117e-08
1.95954e-09
-9.48667e-08
1.70199e-09
-9.5922e-08
1.43287e-09
-9.67698e-08
1.15285e-09
-9.74028e-08
8.62721e-10
-9.78141e-08
5.63432e-10
-9.7998e-08
2.5604e-10
-9.79495e-08
-5.82614e-11
-9.76644e-08
-3.78137e-10
-9.714e-08
-7.02138e-10
-9.63743e-08
-1.0287e-09
-9.53669e-08
-1.35611e-09
-9.41186e-08
-1.68258e-09
-9.26315e-08
-2.00621e-09
-9.09093e-08
-2.32503e-09
-8.89571e-08
-2.63698e-09
-8.67815e-08
-2.93997e-09
-8.43909e-08
-3.23188e-09
-8.1795e-08
-3.51055e-09
-7.90051e-08
-3.77387e-09
-7.60342e-08
-4.01973e-09
-7.28966e-08
-4.24609e-09
-6.96081e-08
-4.45099e-09
-6.6186e-08
-4.63257e-09
-6.26485e-08
-4.78911e-09
-5.90154e-08
-4.919e-09
-5.53072e-08
-5.02085e-09
-5.15454e-08
-5.09343e-09
-4.77522e-08
-5.13573e-09
-4.39505e-08
-5.14699e-09
-4.01634e-08
-5.12665e-09
-3.64142e-08
-5.07445e-09
-3.27265e-08
-4.99037e-09
-2.91233e-08
-4.87467e-09
-2.56275e-08
-4.72789e-09
-2.22611e-08
-4.55085e-09
-1.90457e-08
-4.34467e-09
-1.60013e-08
-4.11074e-09
-1.31472e-08
-3.85075e-09
-1.05009e-08
-3.56667e-09
-8.07833e-09
-3.26081e-09
-5.89339e-09
-2.93575e-09
-3.95789e-09
-2.59444e-09
-2.2811e-09
-2.24019e-09
-8.69531e-10
-1.87678e-09
2.73549e-10
-1.50849e-09
1.14856e-09
-1.14031e-09
1.76024e-09
-7.78075e-10
2.11857e-09
-4.28843e-10
2.23982e-09
-1.01256e-10
2.14808e-09
1.9378e-10
1.87724e-09
4.42256e-10
1.4735e-09
6.26007e-10
9.98101e-10
7.21748e-10
5.29534e-10
7.00455e-10
1.62189e-10
5.30128e-10
2.01459e-10
1.64916e-10
-4.08366e-10
3.75085e-10
-6.33912e-10
4.58206e-10
-4.53581e-10
2.98418e-10
-4.09614e-12
-1.81971e-10
6.14906e-10
-1.03109e-09
1.33189e-09
-2.27355e-09
2.09502e-09
-3.91673e-09
2.86853e-09
-5.95563e-09
3.62798e-09
-8.37651e-09
4.357e-09
-1.11596e-08
5.04489e-09
-1.42815e-08
5.68501e-09
-1.77159e-08
6.27357e-09
-2.14359e-08
6.80884e-09
-2.54135e-08
7.2905e-09
-2.96212e-08
7.71924e-09
-3.40319e-08
8.0964e-09
-3.86191e-08
8.4238e-09
-4.33576e-08
8.70344e-09
-4.82227e-08
8.93746e-09
-5.31912e-08
9.12801e-09
-5.82406e-08
9.27717e-09
-6.33496e-08
9.38689e-09
-6.84977e-08
9.45896e-09
-7.36651e-08
9.49499e-09
-7.8833e-08
9.49636e-09
-8.39831e-08
9.46428e-09
-8.90974e-08
9.39973e-09
-9.41586e-08
9.30351e-09
-9.91496e-08
9.17625e-09
-1.04054e-07
9.01839e-09
-1.08854e-07
8.83025e-09
-1.13535e-07
8.61203e-09
-1.18079e-07
8.36386e-09
-1.2247e-07
8.0858e-09
-1.26692e-07
7.77788e-09
-1.30729e-07
7.44013e-09
-1.34565e-07
7.0726e-09
-1.38183e-07
6.67543e-09
-1.41568e-07
6.24883e-09
-1.44703e-07
5.79313e-09
-1.47574e-07
5.30881e-09
-1.50166e-07
4.79651e-09
-1.52464e-07
4.25708e-09
-1.54453e-07
3.69158e-09
-1.56122e-07
3.10129e-09
-1.57457e-07
2.48775e-09
-1.58447e-07
1.85277e-09
-1.59082e-07
1.1984e-09
-1.59352e-07
5.26993e-10
-1.59252e-07
-1.5883e-10
-1.58774e-07
-8.56182e-10
-1.57914e-07
-1.56189e-09
-1.5667e-07
-2.27254e-09
-1.55042e-07
-2.98449e-09
-1.53031e-07
-3.69384e-09
-1.5064e-07
-4.39651e-09
-1.47877e-07
-5.08827e-09
-1.44749e-07
-5.76473e-09
-1.41268e-07
-6.42139e-09
-1.37446e-07
-7.05372e-09
-1.33299e-07
-7.65715e-09
-1.28846e-07
-8.22715e-09
-1.24107e-07
-8.75924e-09
-1.19104e-07
-9.24909e-09
-1.13862e-07
-9.69253e-09
-1.08409e-07
-1.00856e-08
-1.02773e-07
-1.04247e-08
-9.69861e-08
-1.07064e-08
-9.10792e-08
-1.09278e-08
-8.50864e-08
-1.10862e-08
-7.90425e-08
-1.11796e-08
-7.29832e-08
-1.12063e-08
-6.69446e-08
-1.11652e-08
-6.09633e-08
-1.10558e-08
-5.50755e-08
-1.08781e-08
-4.93176e-08
-1.06326e-08
-4.3725e-08
-1.03206e-08
-3.8332e-08
-9.94379e-09
-3.3172e-08
-9.50471e-09
-2.82764e-08
-9.00637e-09
-2.36746e-08
-8.45247e-09
-1.93939e-08
-7.84736e-09
-1.54587e-08
-7.19604e-09
-1.18902e-08
-6.5042e-09
-8.70637e-09
-5.77831e-09
-5.92089e-09
-5.02567e-09
-3.54315e-09
-4.25452e-09
-1.57737e-09
-3.47427e-09
-2.19732e-11
-2.69571e-09
1.13139e-09
-1.93144e-09
1.89885e-09
-1.1963e-09
2.30578e-09
-5.08197e-10
2.3885e-09
1.11062e-10
2.19619e-09
6.34566e-10
1.7932e-09
1.029e-09
1.26121e-09
1.25375e-09
7.00659e-10
1.26101e-09
2.31044e-10
9.99736e-10
4.32507e-10
1.08717e-10
-5.17086e-10
1.70333e-10
-6.9552e-10
1.07487e-11
-2.93996e-10
-4.89076e-10
4.95737e-10
-1.41184e-09
1.53767e-09
-2.80926e-09
2.72931e-09
-4.70918e-09
3.99494e-09
-7.12067e-09
5.28003e-09
-1.00386e-08
6.54593e-09
-1.34473e-08
7.76574e-09
-1.73236e-08
8.9212e-09
-2.16391e-08
1.00005e-08
-2.63618e-08
1.09963e-08
-3.14579e-08
1.1905e-08
-3.68925e-08
1.27251e-08
-4.26303e-08
1.34571e-08
-4.86366e-08
1.41026e-08
-5.4877e-08
1.46642e-08
-6.13184e-08
1.51448e-08
-6.79284e-08
1.55475e-08
-7.46763e-08
1.58758e-08
-8.1532e-08
1.61329e-08
-8.84668e-08
1.63218e-08
-9.54533e-08
1.64454e-08
-1.02465e-07
1.65064e-08
-1.09475e-07
1.65069e-08
-1.1646e-07
1.6449e-08
-1.23395e-07
1.63344e-08
-1.30255e-07
1.61643e-08
-1.37019e-07
1.59398e-08
-1.43662e-07
1.56618e-08
-1.50163e-07
1.53308e-08
-1.56498e-07
1.49472e-08
-1.62645e-07
1.45114e-08
-1.68583e-07
1.40234e-08
-1.74289e-07
1.34835e-08
-1.7974e-07
1.28918e-08
-1.84916e-07
1.22485e-08
-1.89795e-07
1.1554e-08
-1.94355e-07
1.08087e-08
-1.98575e-07
1.00133e-08
-2.02435e-07
9.16873e-09
-2.05914e-07
8.27627e-09
-2.08995e-07
7.33745e-09
-2.11657e-07
6.35418e-09
-2.13885e-07
5.32878e-09
-2.15661e-07
4.26397e-09
-2.16971e-07
3.16294e-09
-2.17802e-07
2.02929e-09
-2.18142e-07
8.67104e-10
-2.17982e-07
-3.19056e-10
-2.17314e-07
-1.5242e-09
-2.16133e-07
-2.74288e-09
-2.14436e-07
-3.96923e-09
-2.12224e-07
-5.19696e-09
-2.09498e-07
-6.41945e-09
-2.06265e-07
-7.62974e-09
-2.02533e-07
-8.82058e-09
-1.98313e-07
-9.98452e-09
-1.9362e-07
-1.11139e-08
-1.88473e-07
-1.22011e-08
-1.82892e-07
-1.32383e-08
-1.76901e-07
-1.42179e-08
-1.70528e-07
-1.51322e-08
-1.63803e-07
-1.5974e-08
-1.56759e-07
-1.67363e-08
-1.49433e-07
-1.74123e-08
-1.41862e-07
-1.79959e-08
-1.34087e-07
-1.84815e-08
-1.2615e-07
-1.8864e-08
-1.18098e-07
-1.91391e-08
-1.09974e-07
-1.93033e-08
-1.01826e-07
-1.93538e-08
-9.37026e-08
-1.92889e-08
-8.56509e-08
-1.91076e-08
-7.77191e-08
-1.88099e-08
-6.99548e-08
-1.83969e-08
-6.24046e-08
-1.78708e-08
-5.51138e-08
-1.72346e-08
-4.81259e-08
-1.64926e-08
-4.14823e-08
-1.565e-08
-3.52216e-08
-1.47132e-08
-2.93792e-08
-1.36898e-08
-2.3987e-08
-1.25883e-08
-1.90725e-08
-1.14187e-08
-1.46588e-08
-1.0192e-08
-1.07634e-08
-8.92103e-09
-7.39811e-09
-7.61985e-09
-4.56778e-09
-6.30458e-09
-2.26987e-09
-4.99362e-09
-4.93182e-10
-3.70813e-09
7.83247e-10
-2.47274e-09
1.59155e-09
-1.31649e-09
1.97659e-09
-2.73976e-10
1.99777e-09
6.13388e-10
1.73086e-09
1.29592e-09
1.26993e-09
1.71467e-09
7.29372e-10
1.80156e-09
2.47093e-10
1.48202e-09
6.79608e-10
2.26119e-11
-5.39693e-10
-1.29969e-10
-5.42944e-10
-6.15118e-10
1.91149e-10
-1.5448e-09
1.42541e-09
-2.99703e-09
2.9899e-09
-5.02176e-09
4.75405e-09
-7.64585e-09
6.61903e-09
-1.08775e-08
8.51167e-09
-1.47102e-08
1.03786e-08
-1.91261e-08
1.21817e-08
-2.4099e-08
1.38941e-08
-2.95966e-08
1.5498e-08
-3.55822e-08
1.6982e-08
-4.20167e-08
1.83395e-08
-4.88593e-08
1.95676e-08
-5.60685e-08
2.06663e-08
-6.36031e-08
2.16372e-08
-7.1422e-08
2.24832e-08
-7.94854e-08
2.32081e-08
-8.77542e-08
2.38164e-08
-9.61907e-08
2.43123e-08
-1.04758e-07
2.47005e-08
-1.13422e-07
2.49853e-08
-1.22147e-07
2.51706e-08
-1.30901e-07
2.52603e-08
-1.39652e-07
2.52575e-08
-1.48368e-07
2.51651e-08
-1.57019e-07
2.49856e-08
-1.65575e-07
2.47208e-08
-1.74008e-07
2.43725e-08
-1.82288e-07
2.39418e-08
-1.90387e-07
2.34297e-08
-1.98277e-07
2.28369e-08
-2.05929e-07
2.21639e-08
-2.13317e-07
2.1411e-08
-2.20412e-07
2.05787e-08
-2.27188e-07
1.96674e-08
-2.33617e-07
1.86773e-08
-2.39672e-07
1.76093e-08
-2.45328e-07
1.64642e-08
-2.50557e-07
1.52432e-08
-2.55337e-07
1.39479e-08
-2.59641e-07
1.25802e-08
-2.63446e-07
1.11427e-08
-2.6673e-07
9.63845e-09
-2.69472e-07
8.07103e-09
-2.71653e-07
6.4447e-09
-2.73255e-07
4.76437e-09
-2.74261e-07
3.03561e-09
-2.74658e-07
1.26467e-09
-2.74436e-07
-5.41526e-10
-2.73585e-07
-2.37536e-09
-2.72099e-07
-4.22858e-09
-2.69976e-07
-6.09231e-09
-2.67216e-07
-7.95708e-09
-2.63822e-07
-9.81289e-09
-2.59803e-07
-1.16493e-08
-2.55168e-07
-1.34554e-08
-2.49933e-07
-1.522e-08
-2.44115e-07
-1.69317e-08
-2.37737e-07
-1.8579e-08
-2.30825e-07
-2.01503e-08
-2.23409e-07
-2.16342e-08
-2.15522e-07
-2.30193e-08
-2.07201e-07
-2.42948e-08
-1.98487e-07
-2.54501e-08
-1.89424e-07
-2.64755e-08
-1.80058e-07
-2.73616e-08
-1.7044e-07
-2.81001e-08
-1.6062e-07
-2.86836e-08
-1.50653e-07
-2.91056e-08
-1.40596e-07
-2.93609e-08
-1.30504e-07
-2.94455e-08
-1.20436e-07
-2.93566e-08
-1.10451e-07
-2.9093e-08
-1.00606e-07
-2.86549e-08
-9.09591e-08
-2.80437e-08
-8.1567e-08
-2.72629e-08
-7.24845e-08
-2.63171e-08
-6.37643e-08
-2.52127e-08
-5.54565e-08
-2.39578e-08
-4.76077e-08
-2.2562e-08
-4.02607e-08
-2.10367e-08
-3.34539e-08
-1.93951e-08
-2.72204e-08
-1.76521e-08
-2.15879e-08
-1.58246e-08
-1.65773e-08
-1.39316e-08
-1.22025e-08
-1.19946e-08
-8.46935e-09
-1.00377e-08
-5.37472e-09
-8.08825e-09
-2.90554e-09
-6.17731e-09
-1.03757e-09
-4.3407e-09
2.65817e-10
-2.61988e-09
1.05507e-09
-1.06323e-09
1.39592e-09
2.72532e-10
1.37103e-09
1.32081e-09
1.08186e-09
2.00384e-09
6.51158e-10
2.23226e-09
2.27543e-10
1.90564e-09
9.07152e-10
-7.89978e-11
-4.60702e-10
-4.86708e-10
-1.35238e-10
-1.35372e-09
1.05817e-09
-2.77628e-09
2.84797e-09
-4.82214e-09
5.03576e-09
-7.53451e-09
7.46642e-09
-1.09356e-08
1.00202e-08
-1.50303e-08
1.26063e-08
-1.9809e-08
1.51574e-08
-2.52512e-08
1.76238e-08
-3.13272e-08
1.99701e-08
-3.80011e-08
2.21719e-08
-4.52323e-08
2.42132e-08
-5.2977e-08
2.60842e-08
-6.11895e-08
2.77801e-08
-6.98231e-08
2.93e-08
-7.8831e-08
3.06451e-08
-8.81665e-08
3.18187e-08
-9.77839e-08
3.28255e-08
-1.07638e-07
3.36706e-08
-1.17686e-07
3.43598e-08
-1.27884e-07
3.48988e-08
-1.38192e-07
3.5293e-08
-1.48569e-07
3.55478e-08
-1.58977e-07
3.5668e-08
-1.69377e-07
3.5658e-08
-1.79733e-07
3.55215e-08
-1.9001e-07
3.52618e-08
-2.0017e-07
3.48815e-08
-2.10181e-07
3.43829e-08
-2.20007e-07
3.37678e-08
-2.29614e-07
3.30374e-08
-2.3897e-07
3.21929e-08
-2.48042e-07
3.1235e-08
-2.56795e-07
3.01645e-08
-2.65198e-07
2.89819e-08
-2.73219e-07
2.76879e-08
-2.80825e-07
2.62834e-08
-2.87985e-07
2.47695e-08
-2.94668e-07
2.31475e-08
-3.00844e-07
2.14194e-08
-3.06484e-07
1.95875e-08
-3.11559e-07
1.76549e-08
-3.16041e-07
1.56251e-08
-3.19905e-07
1.35027e-08
-3.23127e-07
1.12928e-08
-3.25684e-07
9.00154e-09
-3.27555e-07
6.63588e-09
-3.28724e-07
4.2037e-09
-3.29173e-07
1.71383e-09
-3.2889e-07
-8.23988e-10
-3.27867e-07
-3.3991e-09
-3.26095e-07
-5.99996e-09
-3.23573e-07
-8.61417e-09
-3.20302e-07
-1.12285e-08
-3.16285e-07
-1.38292e-08
-3.11533e-07
-1.64016e-08
-3.06058e-07
-1.89306e-08
-2.99877e-07
-2.14009e-08
-2.93012e-07
-2.37966e-08
-2.85489e-07
-2.61017e-08
-2.77339e-07
-2.83003e-08
-2.68597e-07
-3.03767e-08
-2.59301e-07
-3.23151e-08
-2.49495e-07
-3.41007e-08
-2.39226e-07
-3.5719e-08
-2.28545e-07
-3.71563e-08
-2.17507e-07
-3.84001e-08
-2.06168e-07
-3.94387e-08
-1.9459e-07
-4.0262e-08
-1.82834e-07
-4.08611e-08
-1.70966e-07
-4.12289e-08
-1.59052e-07
-4.13598e-08
-1.47158e-07
-4.12503e-08
-1.35353e-07
-4.08984e-08
-1.23703e-07
-4.03046e-08
-1.12276e-07
-3.94711e-08
-1.01136e-07
-3.84024e-08
-9.03482e-08
-3.71053e-08
-7.99723e-08
-3.55886e-08
-7.00665e-08
-3.38636e-08
-6.06848e-08
-3.19438e-08
-5.18766e-08
-2.9845e-08
-4.36861e-08
-2.75856e-08
-3.61516e-08
-2.51865e-08
-2.9305e-08
-2.26712e-08
-2.31706e-08
-2.00661e-08
-1.77644e-08
-1.74008e-08
-1.30935e-08
-1.47087e-08
-9.15489e-09
-1.20268e-08
-5.93472e-09
-9.39748e-09
-3.40694e-09
-6.86848e-09
-1.53237e-09
-4.49446e-09
-2.5742e-10
-2.33818e-09
4.87113e-10
-4.72e-10
7.87472e-10
1.02045e-09
7.48708e-10
2.0426e-09
4.97184e-10
2.48379e-09
1.84851e-10
2.21798e-09
1.092e-09
-1.8797e-10
-2.72721e-10
-8.74519e-10
5.51301e-10
-2.15917e-09
2.34282e-09
-4.11737e-09
4.80618e-09
-6.80226e-09
7.72064e-09
-1.02466e-08
1.09107e-08
-1.44649e-08
1.42385e-08
-1.94565e-08
1.75979e-08
-2.52071e-08
2.0908e-08
-3.16921e-08
2.41088e-08
-3.88783e-08
2.71563e-08
-4.67259e-08
3.00196e-08
-5.51904e-08
3.26777e-08
-6.42239e-08
3.51177e-08
-7.37764e-08
3.73326e-08
-8.37966e-08
3.93201e-08
-9.42328e-08
4.10813e-08
-1.05033e-07
4.26194e-08
-1.16148e-07
4.39397e-08
-1.27525e-07
4.50483e-08
-1.39117e-07
4.59519e-08
-1.50876e-07
4.66575e-08
-1.62755e-07
4.71719e-08
-1.74709e-07
4.75014e-08
-1.86693e-07
4.76522e-08
-1.98664e-07
4.76296e-08
-2.10581e-07
4.74383e-08
-2.22402e-07
4.70827e-08
-2.34086e-07
4.65659e-08
-2.45595e-07
4.5891e-08
-2.56887e-07
4.50603e-08
-2.67925e-07
4.40755e-08
-2.7867e-07
4.29382e-08
-2.89085e-07
4.16495e-08
-2.99131e-07
4.02105e-08
-3.08771e-07
3.86221e-08
-3.17969e-07
3.68855e-08
-3.26687e-07
3.5002e-08
-3.34891e-07
3.29732e-08
-3.42545e-07
3.08012e-08
-3.49614e-07
2.84888e-08
-3.56066e-07
2.60392e-08
-3.61868e-07
2.34568e-08
-3.66989e-07
2.07464e-08
-3.71401e-07
1.79143e-08
-3.75075e-07
1.49674e-08
-3.77988e-07
1.1914e-08
-3.80115e-07
8.7635e-09
-3.81438e-07
5.52636e-09
-3.81939e-07
2.21436e-09
-3.81603e-07
-1.15955e-09
-3.80421e-07
-4.58124e-09
-3.78385e-07
-8.03545e-09
-3.75494e-07
-1.15058e-08
-3.71747e-07
-1.4975e-08
-3.67152e-07
-1.84246e-08
-3.61718e-07
-2.18357e-08
-3.5546e-07
-2.51884e-08
-3.48398e-07
-2.84625e-08
-3.40558e-07
-3.16373e-08
-3.31968e-07
-3.46918e-08
-3.22663e-07
-3.76054e-08
-3.12682e-07
-4.03572e-08
-3.0207e-07
-4.29269e-08
-2.90876e-07
-4.52951e-08
-2.79152e-07
-4.74427e-08
-2.66956e-07
-4.93521e-08
-2.5435e-07
-5.10067e-08
-2.41397e-07
-5.23916e-08
-2.28165e-07
-5.34933e-08
-2.14726e-07
-5.43005e-08
-2.01151e-07
-5.48037e-08
-1.87515e-07
-5.49959e-08
-1.73893e-07
-5.48721e-08
-1.60361e-07
-5.44303e-08
-1.46995e-07
-5.36707e-08
-1.3387e-07
-5.25965e-08
-1.21058e-07
-5.12137e-08
-1.08633e-07
-4.95311e-08
-9.66609e-08
-4.75604e-08
-8.5208e-08
-4.53165e-08
-7.43346e-08
-4.28171e-08
-6.40964e-08
-4.00832e-08
-5.4543e-08
-3.71389e-08
-4.57178e-08
-3.40117e-08
-3.76564e-08
-3.07325e-08
-3.03867e-08
-2.73359e-08
-2.3927e-08
-2.38605e-08
-1.82863e-08
-2.03494e-08
-1.34625e-08
-1.68507e-08
-9.44166e-09
-1.34183e-08
-6.19749e-09
-1.01127e-08
-3.68986e-09
-7.0021e-09
-1.86402e-09
-4.16402e-09
-6.49577e-10
-1.68645e-09
4.0725e-11
3.30148e-10
3.12463e-10
1.77086e-09
2.91576e-10
2.50468e-09
1.27533e-10
2.38202e-09
1.21953e-09
-2.99649e-10
2.69262e-11
-1.27738e-09
1.52902e-09
-3.00074e-09
4.06618e-09
-5.52178e-09
7.32722e-09
-8.87612e-09
1.1075e-08
-1.30833e-08
1.51179e-08
-1.81481e-08
1.93033e-08
-2.40617e-08
2.35115e-08
-3.08041e-08
2.76504e-08
-3.83453e-08
3.165e-08
-4.66478e-08
3.54588e-08
-5.56676e-08
3.90394e-08
-6.53562e-08
4.23663e-08
-7.56618e-08
4.54233e-08
-8.65302e-08
4.8201e-08
-9.7906e-08
5.0696e-08
-1.09733e-07
5.29085e-08
-1.21956e-07
5.48422e-08
-1.34519e-07
5.65026e-08
-1.47367e-07
5.78965e-08
-1.60447e-07
5.90319e-08
-1.73706e-07
5.99166e-08
-1.87093e-07
6.05588e-08
-2.00558e-07
6.0966e-08
-2.14051e-07
6.11454e-08
-2.27525e-07
6.11036e-08
-2.40933e-07
6.08461e-08
-2.54228e-07
6.03782e-08
-2.67366e-07
5.9704e-08
-2.80302e-07
5.8827e-08
-2.92992e-07
5.77502e-08
-3.05393e-07
5.64759e-08
-3.17461e-07
5.50061e-08
-3.29154e-07
5.33424e-08
-3.40429e-07
5.14863e-08
-3.51246e-07
4.94391e-08
-3.61564e-07
4.72026e-08
-3.7134e-07
4.47786e-08
-3.80536e-07
4.21695e-08
-3.89113e-07
3.93781e-08
-3.97033e-07
3.64081e-08
-4.04257e-07
3.32641e-08
-4.10752e-07
2.99516e-08
-4.16483e-07
2.64773e-08
-4.21418e-07
2.28491e-08
-4.25527e-07
1.90762e-08
-4.28782e-07
1.51692e-08
-4.31158e-07
1.11401e-08
-4.32634e-07
7.00247e-09
-4.33191e-07
2.77133e-09
-4.32814e-07
-1.53683e-09
-4.31491e-07
-5.90405e-09
-4.29216e-07
-1.03109e-08
-4.25985e-07
-1.47368e-08
-4.218e-07
-1.91596e-08
-4.16669e-07
-2.35562e-08
-4.10602e-07
-2.79027e-08
-4.03616e-07
-3.2174e-08
-3.95734e-07
-3.63445e-08
-3.86983e-07
-4.03883e-08
-3.77396e-07
-4.42792e-08
-3.6701e-07
-4.79907e-08
-3.5587e-07
-5.14971e-08
-3.44025e-07
-5.47728e-08
-3.31527e-07
-5.77931e-08
-3.18435e-07
-6.05344e-08
-3.04813e-07
-6.29744e-08
-2.90727e-07
-6.50923e-08
-2.76249e-07
-6.68693e-08
-2.61454e-07
-6.82887e-08
-2.46418e-07
-6.93361e-08
-2.31222e-07
-6.99997e-08
-2.15948e-07
-7.02706e-08
-2.00677e-07
-7.01426e-08
-1.85494e-07
-6.96132e-08
-1.70482e-07
-6.86827e-08
-1.55724e-07
-6.73551e-08
-1.41299e-07
-6.5638e-08
-1.27288e-07
-6.35424e-08
-1.13765e-07
-6.10833e-08
-1.00802e-07
-5.82794e-08
-8.84662e-08
-5.51531e-08
-7.68185e-08
-5.17309e-08
-6.59142e-08
-4.80432e-08
-5.58013e-08
-4.41247e-08
-4.65197e-08
-4.00141e-08
-3.81005e-08
-3.5755e-08
-3.05653e-08
-3.13957e-08
-2.39251e-08
-2.69896e-08
-1.81793e-08
-2.25964e-08
-1.33154e-08
-1.82822e-08
-9.30768e-09
-1.41204e-08
-6.11655e-09
-1.01932e-08
-3.68773e-09
-6.59283e-09
-1.95146e-09
-3.42272e-09
-8.21574e-10
-7.99737e-10
-1.94486e-10
1.14377e-09
5.2183e-11
2.25801e-09
6.14153e-11
2.37278e-09
1.28094e-09
-4.11377e-10
4.38311e-10
-1.68526e-09
2.8029e-09
-3.85808e-09
6.23899e-09
-6.95752e-09
1.04267e-08
-1.10001e-08
1.51175e-08
-1.59903e-08
2.01081e-08
-2.1921e-08
2.5234e-08
-2.87742e-08
3.03647e-08
-3.65223e-08
3.53985e-08
-4.51293e-08
4.0257e-08
-5.45522e-08
4.48817e-08
-6.47425e-08
4.92297e-08
-7.56475e-08
5.32713e-08
-8.72112e-08
5.6987e-08
-9.93756e-08
6.03654e-08
-1.12081e-07
6.34017e-08
-1.25269e-07
6.60958e-08
-1.38877e-07
6.84509e-08
-1.52848e-07
7.04733e-08
-1.67122e-07
7.21705e-08
-1.81641e-07
7.35511e-08
-1.96349e-07
7.46244e-08
-2.1119e-07
7.53995e-08
-2.26109e-07
7.58851e-08
-2.41053e-07
7.60896e-08
-2.5597e-07
7.60206e-08
-2.70808e-07
7.56846e-08
-2.85518e-07
7.50877e-08
-3.00049e-07
7.4235e-08
-3.14353e-07
7.31305e-08
-3.2838e-07
7.1778e-08
-3.42085e-07
7.01802e-08
-3.55418e-07
6.83397e-08
-3.68334e-07
6.62586e-08
-3.80787e-07
6.39387e-08
-3.9273e-07
6.13823e-08
-4.04119e-07
5.85913e-08
-4.14908e-07
5.55684e-08
-4.25055e-07
5.23166e-08
-4.34517e-07
4.884e-08
-4.43252e-07
4.51431e-08
-4.5122e-07
4.1232e-08
-4.58382e-07
3.71137e-08
-4.64702e-07
3.27967e-08
-4.70144e-07
2.82909e-08
-4.74675e-07
2.36079e-08
-4.78267e-07
1.87609e-08
-4.80892e-07
1.37649e-08
-4.82526e-07
8.63675e-09
-4.8315e-07
3.39494e-09
-4.82747e-07
-1.94011e-09
-4.81304e-07
-7.34626e-09
-4.78816e-07
-1.27997e-08
-4.75278e-07
-1.82749e-08
-4.70692e-07
-2.37449e-08
-4.65067e-07
-2.91815e-08
-4.58415e-07
-3.4555e-08
-4.50753e-07
-3.98351e-08
-4.42107e-07
-4.49905e-08
-4.32506e-07
-4.99893e-08
-4.21986e-07
-5.47995e-08
-4.10588e-07
-5.93892e-08
-3.98358e-07
-6.37265e-08
-3.85351e-07
-6.77804e-08
-3.71623e-07
-7.15207e-08
-3.57239e-07
-7.49188e-08
-3.42266e-07
-7.79472e-08
-3.26777e-07
-8.05808e-08
-3.1085e-07
-8.27965e-08
-2.94565e-07
-8.4574e-08
-2.78006e-07
-8.58955e-08
-2.61259e-07
-8.67468e-08
-2.44412e-07
-8.71169e-08
-2.27556e-07
-8.69984e-08
-2.10782e-07
-8.63878e-08
-1.94179e-07
-8.52859e-08
-1.77837e-07
-8.36973e-08
-1.61843e-07
-8.16312e-08
-1.46284e-07
-7.91014e-08
-1.31242e-07
-7.61259e-08
-1.16794e-07
-7.27275e-08
-1.03013e-07
-6.89338e-08
-8.99668e-08
-6.47771e-08
-7.77154e-08
-6.02946e-08
-6.63117e-08
-5.55284e-08
-5.57998e-08
-5.0526e-08
-4.62148e-08
-4.534e-08
-3.75814e-08
-4.00291e-08
-2.99134e-08
-3.46576e-08
-2.32128e-08
-2.92971e-08
-1.74689e-08
-2.4026e-08
-1.2658e-08
-1.89313e-08
-8.74203e-09
-1.41092e-08
-5.66863e-09
-9.66624e-09
-3.37013e-09
-5.72122e-09
-1.76318e-09
-2.40669e-09
-7.48081e-10
1.28678e-10
-2.08261e-10
1.71818e-09
-9.63754e-12
2.17415e-09
1.27131e-09
-5.21734e-10
9.60048e-10
-2.092e-09
4.37317e-09
-4.71788e-09
8.86487e-09
-8.40279e-09
1.41116e-08
-1.31433e-08
1.9858e-08
-1.89278e-08
2.58926e-08
-2.57361e-08
3.20423e-08
-3.35396e-08
3.81682e-08
-4.23021e-08
4.41609e-08
-5.19803e-08
4.99352e-08
-6.25253e-08
5.54267e-08
-7.38835e-08
6.05879e-08
-8.59975e-08
6.53853e-08
-9.88071e-08
6.97966e-08
-1.1225e-07
7.38087e-08
-1.26264e-07
7.74155e-08
-1.40785e-07
8.06163e-08
-1.55749e-07
8.34147e-08
-1.71092e-07
8.5817e-08
-1.86753e-07
8.78316e-08
-2.0267e-07
8.9468e-08
-2.18782e-07
9.07365e-08
-2.3503e-07
9.16472e-08
-2.51355e-07
9.22102e-08
-2.677e-07
9.24347e-08
-2.84009e-07
9.23293e-08
-3.00226e-07
9.19019e-08
-3.16298e-07
9.11591e-08
-3.32169e-07
9.01068e-08
-3.47789e-07
8.875e-08
-3.63104e-07
8.70928e-08
-3.78062e-07
8.51387e-08
-3.92613e-07
8.28908e-08
-4.06706e-07
8.03516e-08
-4.20291e-07
7.75237e-08
-4.33319e-07
7.44097e-08
-4.4574e-07
7.10124e-08
-4.57506e-07
6.73351e-08
-4.68572e-07
6.33818e-08
-4.78889e-07
5.91576e-08
-4.88415e-07
5.46684e-08
-4.97104e-07
4.99214e-08
-5.04916e-07
4.49257e-08
-5.11811e-07
3.96914e-08
-5.17751e-07
3.4231e-08
-5.22701e-07
2.85584e-08
-5.2663e-07
2.26899e-08
-5.29509e-07
1.66434e-08
-5.31311e-07
1.04395e-08
-5.32017e-07
4.10031e-09
-5.31608e-07
-2.34943e-09
-5.30071e-07
-8.88316e-09
-5.27398e-07
-1.54723e-08
-5.23587e-07
-2.20862e-08
-5.18639e-07
-2.86927e-08
-5.12563e-07
-3.52578e-08
-5.05371e-07
-4.17463e-08
-4.97085e-07
-4.81218e-08
-4.87728e-07
-5.4347e-08
-4.77334e-07
-6.03838e-08
-4.65939e-07
-6.6194e-08
-4.53589e-07
-7.17395e-08
-4.40333e-07
-7.69823e-08
-4.26228e-07
-8.18855e-08
-4.11336e-07
-8.64131e-08
-3.95724e-07
-9.05306e-08
-3.79465e-07
-9.42057e-08
-3.62638e-07
-9.7408e-08
-3.45325e-07
-1.0011e-07
-3.27611e-07
-1.02288e-07
-3.09586e-07
-1.0392e-07
-2.91344e-07
-1.04989e-07
-2.72979e-07
-1.05482e-07
-2.54587e-07
-1.0539e-07
-2.36266e-07
-1.04709e-07
-2.18112e-07
-1.0344e-07
-2.00222e-07
-1.01587e-07
-1.82691e-07
-9.9163e-08
-1.65609e-07
-9.61828e-08
-1.49067e-07
-9.26683e-08
-1.33147e-07
-8.86469e-08
-1.1793e-07
-8.41511e-08
-1.03488e-07
-7.92195e-08
-8.98858e-08
-7.38964e-08
-7.71823e-08
-6.82319e-08
-6.5426e-08
-6.22823e-08
-5.4656e-08
-5.611e-08
-4.49009e-08
-4.97841e-08
-3.61779e-08
-4.33806e-08
-2.84921e-08
-3.69829e-08
-2.18357e-08
-3.06824e-08
-1.61876e-08
-2.45794e-08
-1.15126e-08
-1.87841e-08
-7.7613e-09
-1.34176e-08
-4.86928e-09
-8.61323e-09
-2.7573e-09
-4.51866e-09
-1.33099e-09
-1.29764e-09
-4.80929e-10
8.68111e-10
-8.31133e-11
1.77635e-09
1.18819e-09
-6.29909e-10
1.58995e-09
-2.49386e-09
6.23712e-09
-5.57157e-09
1.19426e-08
-9.84288e-09
1.83829e-08
-1.52844e-08
2.52995e-08
-2.18677e-08
3.24759e-08
-2.95587e-08
3.97333e-08
-3.83173e-08
4.69269e-08
-4.80978e-08
5.39414e-08
-5.8849e-08
6.06864e-08
-7.05154e-08
6.7093e-08
-8.30374e-08
7.31099e-08
-9.63527e-08
7.87006e-08
-1.10397e-07
8.38407e-08
-1.25104e-07
8.85155e-08
-1.40406e-07
9.2718e-08
-1.56237e-07
9.64473e-08
-1.72529e-07
9.97069e-08
-1.89216e-07
1.02504e-07
-2.06231e-07
1.04847e-07
-2.2351e-07
1.06747e-07
-2.40988e-07
1.08215e-07
-2.58603e-07
1.09262e-07
-2.76292e-07
1.09899e-07
-2.93994e-07
1.10137e-07
-3.11651e-07
1.09986e-07
-3.29203e-07
1.09454e-07
-3.46591e-07
1.08548e-07
-3.6376e-07
1.07275e-07
-3.80651e-07
1.05642e-07
-3.9721e-07
1.03652e-07
-4.13382e-07
1.0131e-07
-4.2911e-07
9.86193e-08
-4.44342e-07
9.55834e-08
-4.59023e-07
9.22051e-08
-4.73102e-07
8.84879e-08
-4.86524e-07
8.44351e-08
-4.9924e-07
8.00509e-08
-5.11199e-07
7.53404e-08
-5.22351e-07
7.03097e-08
-5.32648e-07
6.4966e-08
-5.42045e-07
5.93184e-08
-5.50497e-07
5.33774e-08
-5.57961e-07
4.71557e-08
-5.64398e-07
4.06677e-08
-5.6977e-07
3.39304e-08
-5.74043e-07
2.6963e-08
-5.77187e-07
1.97869e-08
-5.79173e-07
1.24261e-08
-5.7998e-07
4.90731e-09
-5.79589e-07
-2.7407e-09
-5.77986e-07
-1.04865e-08
-5.75161e-07
-1.82965e-08
-5.71113e-07
-2.61347e-08
-5.65842e-07
-3.39632e-08
-5.59358e-07
-4.17423e-08
-5.51674e-07
-4.94306e-08
-5.4281e-07
-5.69853e-08
-5.32794e-07
-6.43628e-08
-5.21659e-07
-7.15186e-08
-5.09446e-07
-7.84078e-08
-4.962e-07
-8.49856e-08
-4.81974e-07
-9.12079e-08
-4.66828e-07
-9.7031e-08
-4.50829e-07
-1.02413e-07
-4.34046e-07
-1.07313e-07
-4.16557e-07
-1.11694e-07
-3.98445e-07
-1.1552e-07
-3.79797e-07
-1.18758e-07
-3.60704e-07
-1.21381e-07
-3.41262e-07
-1.23362e-07
-3.21569e-07
-1.24682e-07
-3.01725e-07
-1.25325e-07
-2.81834e-07
-1.25281e-07
-2.61999e-07
-1.24545e-07
-2.42322e-07
-1.23116e-07
-2.22908e-07
-1.21002e-07
-2.03856e-07
-1.18214e-07
-1.85267e-07
-1.14773e-07
-1.67233e-07
-1.10702e-07
-1.49846e-07
-1.06034e-07
-1.33192e-07
-1.00806e-07
-1.17347e-07
-9.50638e-08
-1.02385e-07
-8.88589e-08
-8.83671e-08
-8.22496e-08
-7.5348e-08
-7.53014e-08
-6.33713e-08
-6.80868e-08
-5.24697e-08
-6.06857e-08
-4.26647e-08
-5.31857e-08
-3.3965e-08
-4.56826e-08
-2.63664e-08
-3.82809e-08
-1.98516e-08
-3.10943e-08
-1.43888e-08
-2.42469e-08
-9.93245e-09
-1.78739e-08
-6.42254e-09
-1.21231e-08
-3.78483e-09
-7.15637e-09
-1.93111e-09
-3.15136e-09
-7.59873e-10
-3.03131e-10
-1.57425e-10
1.1739e-09
1.03076e-09
-7.35513e-10
2.32547e-09
-2.88866e-09
8.39027e-09
-6.41378e-09
1.54677e-08
-1.12681e-08
2.32372e-08
-1.74085e-08
3.14399e-08
-2.47898e-08
3.98572e-08
-3.33635e-08
4.8307e-08
-4.30773e-08
5.66408e-08
-5.38753e-08
6.47394e-08
-6.56978e-08
7.25089e-08
-7.84819e-08
7.98771e-08
-9.21619e-08
8.679e-08
-1.0667e-07
9.32089e-08
-1.21938e-07
9.9108e-08
-1.37893e-07
1.04471e-07
-1.54467e-07
1.09292e-07
-1.71588e-07
1.13568e-07
-1.89185e-07
1.17304e-07
-2.07189e-07
1.20507e-07
-2.25529e-07
1.23188e-07
-2.44139e-07
1.25356e-07
-2.6295e-07
1.27026e-07
-2.81897e-07
1.28209e-07
-3.00914e-07
1.28916e-07
-3.19938e-07
1.29161e-07
-3.38905e-07
1.28953e-07
-3.57753e-07
1.28302e-07
-3.76421e-07
1.27216e-07
-3.94849e-07
1.25703e-07
-4.12976e-07
1.23769e-07
-4.30744e-07
1.2142e-07
-4.48093e-07
1.18659e-07
-4.64967e-07
1.15493e-07
-4.81307e-07
1.11923e-07
-4.97056e-07
1.07955e-07
-5.12159e-07
1.03591e-07
-5.2656e-07
9.88362e-08
-5.40205e-07
9.36956e-08
-5.5304e-07
8.81753e-08
-5.65013e-07
8.22824e-08
-5.76073e-07
7.60259e-08
-5.8617e-07
6.94163e-08
-5.95259e-07
6.24661e-08
-6.03294e-07
5.51903e-08
-6.10232e-07
4.76059e-08
-6.16034e-07
3.97327e-08
-6.20664e-07
3.1593e-08
-6.24089e-07
2.32119e-08
-6.26281e-07
1.46175e-08
-6.27214e-07
5.84041e-09
-6.26869e-07
-3.08574e-09
-6.25231e-07
-1.21246e-08
-6.2229e-07
-2.12373e-08
-6.18042e-07
-3.03822e-08
-6.1249e-07
-3.95155e-08
-6.05641e-07
-4.85913e-08
-5.9751e-07
-5.75619e-08
-5.88117e-07
-6.63778e-08
-5.77491e-07
-7.49887e-08
-5.65667e-07
-8.33431e-08
-5.52685e-07