/*--------------------------------*- C++ -*----------------------------------*\
| =========                 |                                                 |
| \\      /  F ield         | OpenFOAM: The Open Source CFD Toolbox           |
|  \\    /   O peration     | Version:  2512                                  |
|   \\  /    A nd           | Website:  www.openfoam.com                      |
|    \\/     M anipulation  |                                                 |
\*---------------------------------------------------------------------------*/
FoamFile
{
    version     2.0;
    format      ascii;
    arch        "LSB;label=32;scalar=64";
    class       surfaceScalarField;
    location    "0.5";
    object      phi;
}
// * * * * * * * * * * * * * * * * * * * * * * * * * * * * * * * * * * * * * //

dimensions      [0 3 -1 0 0 0 0];

oriented        oriented;

internalField   nonuniform List<scalar> 
19800
(
7.74986e-11
-7.74486e-11
2.91916e-10
-2.14413e-10
5.51992e-10
-2.60089e-10
7.48368e-10
-1.96364e-10
8.32733e-10
-8.43656e-11
7.92524e-10
4.02347e-11
6.28526e-10
1.63978e-10
3.46936e-10
2.8159e-10
-4.42092e-11
3.91133e-10
-5.35753e-10
4.91546e-10
-1.11903e-09
5.83256e-10
-1.78537e-09
6.66333e-10
-2.52602e-09
7.40679e-10
-3.33323e-09
8.07197e-10
-4.19922e-09
8.65992e-10
-5.11711e-09
9.17871e-10
-6.07976e-09
9.62639e-10
-7.08114e-09
1.00138e-09
-8.11512e-09
1.03399e-09
-9.17605e-09
1.06092e-09
-1.02586e-08
1.08255e-09
-1.1358e-08
1.09943e-09
-1.24696e-08
1.11156e-09
-1.35888e-08
1.11921e-09
-1.47116e-08
1.12287e-09
-1.58343e-08
1.12267e-09
-1.69529e-08
1.11858e-09
-1.80637e-08
1.11082e-09
-1.91633e-08
1.09958e-09
-2.02482e-08
1.08492e-09
-2.1315e-08
1.06682e-09
-2.23603e-08
1.04526e-09
-2.33806e-08
1.0203e-09
-2.43725e-08
9.91893e-10
-2.53324e-08
9.59971e-10
-2.62569e-08
9.245e-10
-2.71426e-08
8.85609e-10
-2.79859e-08
8.43354e-10
-2.87834e-08
7.97516e-10
-2.95314e-08
7.47979e-10
-3.02263e-08
6.94883e-10
-3.08646e-08
6.38337e-10
-3.14429e-08
5.78344e-10
-3.1958e-08
5.1501e-10
-3.24065e-08
4.48521e-10
-3.27855e-08
3.78962e-10
-3.30919e-08
3.06428e-10
-3.3323e-08
2.31125e-10
-3.34763e-08
1.5333e-10
-3.35498e-08
7.34529e-11
-3.35417e-08
-8.08742e-12
-3.34506e-08
-9.11149e-11
-3.32751e-08
-1.75446e-10
-3.30145e-08
-2.6059e-10
-3.26685e-08
-3.45985e-10
-3.22374e-08
-4.31163e-10
-3.17218e-08
-5.1559e-10
-3.11231e-08
-5.98715e-10
-3.0443e-08
-6.80097e-10
-2.96837e-08
-7.59261e-10
-2.88481e-08
-8.3562e-10
-2.79395e-08
-9.0863e-10
-2.69617e-08
-9.77782e-10
-2.59192e-08
-1.04243e-09
-2.48174e-08
-1.10184e-09
-2.36619e-08
-1.15548e-09
-2.24589e-08
-1.20301e-09
-2.12149e-08
-1.24405e-09
-1.99367e-08
-1.27816e-09
-1.86317e-08
-1.30497e-09
-1.73076e-08
-1.32417e-09
-1.59721e-08
-1.33544e-09
-1.46337e-08
-1.33847e-09
-1.33006e-08
-1.33308e-09
-1.19814e-08
-1.31921e-09
-1.06845e-08
-1.29683e-09
-9.41857e-09
-1.26596e-09
-8.19178e-09
-1.22678e-09
-7.01217e-09
-1.17961e-09
-5.8874e-09
-1.12477e-09
-4.82482e-09
-1.06258e-09
-3.83144e-09
-9.9337e-10
-2.91386e-09
-9.17585e-10
-2.07807e-09
-8.35785e-10
-1.32946e-09
-7.48608e-10
-6.72678e-10
-6.56774e-10
-1.11546e-10
-5.61132e-10
3.51138e-10
-4.62689e-10
7.13758e-10
-3.62623e-10
9.76052e-10
-2.62294e-10
1.13934e-09
-1.63291e-10
1.20685e-09
-6.7513e-11
1.18413e-09
2.2707e-11
1.07978e-09
1.0435e-10
9.06479e-10
1.73297e-10
6.82725e-10
2.23752e-10
4.3518e-10
2.47541e-10
2.02269e-10
2.32901e-10
3.87024e-11
1.6355e-10
3.86876e-11
1.15007e-10
-1.9245e-10
3.74308e-10
-4.73703e-10
6.62281e-10
-5.48063e-10
8.25852e-10
-3.59941e-10
7.68731e-10
-2.72677e-11
4.43488e-10
3.6545e-10
-1.67241e-10
7.74748e-10
-1.06394e-09
1.17827e-09
-2.23712e-09
1.56433e-09
-3.67254e-09
1.92697e-09
-5.35214e-09
2.26287e-09
-7.25666e-09
2.57084e-09
-9.36662e-09
2.85062e-09
-1.16617e-08
3.10227e-09
-1.41226e-08
3.32693e-09
-1.67305e-08
3.52572e-09
-1.9467e-08
3.69922e-09
-2.23148e-08
3.84921e-09
-2.52574e-08
3.97651e-09
-2.82788e-08
4.08238e-09
-3.13644e-08
4.16817e-09
-3.45e-08
4.23493e-09
-3.7672e-08
4.28355e-09
-4.08679e-08
4.31512e-09
-4.40756e-08
4.3305e-09
-4.72832e-08
4.33032e-09
-5.04797e-08
4.3151e-09
-5.36544e-08
4.28546e-09
-5.67966e-08
4.24175e-09
-5.98958e-08
4.18414e-09
-6.29418e-08
4.11286e-09
-6.59247e-08
4.02813e-09
-6.88344e-08
3.92997e-09
-7.16607e-08
3.81821e-09
-7.43936e-08
3.69286e-09
-7.70231e-08
3.55402e-09
-7.95392e-08
3.40171e-09
-8.19317e-08
3.23591e-09
-8.41908e-08
3.05654e-09
-8.63064e-08
2.86356e-09
-8.82686e-08
2.65711e-09
-9.00677e-08
2.43744e-09
-9.16942e-08
2.20484e-09
-9.31389e-08
1.95971e-09
-9.4393e-08
1.7026e-09
-9.5448e-08
1.43401e-09
-9.6296e-08
1.15443e-09
-9.69296e-08
8.64708e-10
-9.73423e-08
5.65984e-10
-9.75283e-08
2.59461e-10
-9.74827e-08
-5.36754e-11
-9.72016e-08
-3.72238e-10
-9.66821e-08
-6.94956e-10
-9.59224e-08
-1.02027e-09
-9.4922e-08
-1.34636e-09
-9.36818e-08
-1.67133e-09
-9.22041e-08
-1.99332e-09
-9.04924e-08
-2.31036e-09
-8.8552e-08
-2.62049e-09
-8.63895e-08
-2.92176e-09
-8.4013e-08
-3.21215e-09
-8.14321e-08
-3.48956e-09
-7.86581e-08
-3.7518e-09
-7.57038e-08
-3.99669e-09
-7.25836e-08
-4.22208e-09
-6.9313e-08
-4.42601e-09
-6.59093e-08
-4.60671e-09
-6.23907e-08
-4.7626e-09
-5.87767e-08
-4.89222e-09
-5.50875e-08
-4.99418e-09
-5.13444e-08
-5.06721e-09
-4.75696e-08
-5.11023e-09
-4.37857e-08
-5.12239e-09
-4.00157e-08
-5.10309e-09
-3.62829e-08
-5.05197e-09
-3.26107e-08
-4.969e-09
-2.90223e-08
-4.85443e-09
-2.55402e-08
-4.70889e-09
-2.21865e-08
-4.53329e-09
-1.89825e-08
-4.32876e-09
-1.59484e-08
-4.09664e-09
-1.31033e-08
-3.83848e-09
-1.04648e-08
-3.55615e-09
-8.04873e-09
-3.2518e-09
-5.86938e-09
-2.92795e-09
-3.93864e-09
-2.58752e-09
-2.26593e-09
-2.23384e-09
-8.57867e-10
-1.87076e-09
2.82193e-10
-1.50269e-09
1.15463e-09
-1.13474e-09
1.76423e-09
-7.729e-10
2.12097e-09
-4.24266e-10
2.24115e-09
-9.74767e-11
2.14881e-09
1.96676e-10
1.87776e-09
4.44337e-10
1.47402e-09
6.27493e-10
9.98631e-10
7.2294e-10
5.29955e-10
7.01599e-10
1.62542e-10
5.30992e-10
2.01219e-10
6.68432e-11
-2.59305e-10
1.96685e-10
-6.03558e-10
2.80239e-10
-6.31616e-10
1.7042e-10
-2.50109e-10
-2.41114e-10
3.84273e-10
-1.01969e-09
1.14405e-09
-2.19825e-09
1.95327e-09
-3.78699e-09
2.76703e-09
-5.78106e-09
3.55837e-09
-8.16527e-09
4.3112e-09
-1.09188e-08
5.01639e-09
-1.40163e-08
5.66836e-09
-1.74307e-08
6.26501e-09
-2.11335e-08
6.80514e-09
-2.50965e-08
7.28994e-09
-2.92908e-08
7.72002e-09
-3.36894e-08
8.09781e-09
-3.82651e-08
8.42483e-09
-4.29924e-08
8.70381e-09
-4.78465e-08
8.93656e-09
-5.2804e-08
9.12563e-09
-5.78423e-08
9.27329e-09
-6.29401e-08
9.38135e-09
-6.80767e-08
9.45177e-09
-7.32325e-08
9.48624e-09
-7.83884e-08
9.48624e-09
-8.35263e-08
9.45295e-09
-8.86282e-08
9.38738e-09
-9.36768e-08
9.29039e-09
-9.86552e-08
9.16254e-09
-1.03547e-07
9.00432e-09
-1.08335e-07
8.81604e-09
-1.13002e-07
8.59782e-09
-1.17534e-07
8.34979e-09
-1.21913e-07
8.07192e-09
-1.26123e-07
7.7643e-09
-1.30149e-07
7.42707e-09
-1.33973e-07
7.06023e-09
-1.3758e-07
6.66384e-09
-1.40955e-07
6.23806e-09
-1.44081e-07
5.78322e-09
-1.46943e-07
5.29981e-09
-1.49527e-07
4.78854e-09
-1.51818e-07
4.25038e-09
-1.53801e-07
3.6864e-09
-1.55465e-07
3.09776e-09
-1.56797e-07
2.48595e-09
-1.57785e-07
1.85282e-09
-1.58419e-07
1.20055e-09
-1.58692e-07
5.31598e-10
-1.58594e-07
-1.5141e-10
-1.5812e-07
-8.45737e-10
-1.57267e-07
-1.54836e-09
-1.56031e-07
-2.25587e-09
-1.54413e-07
-2.96458e-09
-1.52414e-07
-3.67055e-09
-1.50037e-07
-4.36968e-09
-1.4729e-07
-5.05779e-09
-1.4418e-07
-5.73065e-09
-1.40718e-07
-6.38389e-09
-1.36917e-07
-7.01305e-09
-1.32793e-07
-7.61366e-09
-1.28363e-07
-8.18119e-09
-1.23649e-07
-8.71107e-09
-1.18672e-07
-9.19886e-09
-1.13458e-07
-9.64044e-09
-1.08032e-07
-1.0032e-08
-1.02425e-07
-1.037e-08
-9.6666e-08
-1.06512e-08
-9.07875e-08
-1.08726e-08
-8.4823e-08
-1.10317e-08
-7.8807e-08
-1.11262e-08
-7.2775e-08
-1.11545e-08
-6.67628e-08
-1.11153e-08
-6.08068e-08
-1.1008e-08
-5.49432e-08
-1.08326e-08
-4.9208e-08
-1.05896e-08
-4.36365e-08
-1.02804e-08
-3.82631e-08
-9.90672e-09
-3.31208e-08
-9.47108e-09
-2.8241e-08
-8.97641e-09
-2.36532e-08
-8.42626e-09
-1.93846e-08
-7.82481e-09
-1.54594e-08
-7.17693e-09
-1.18991e-08
-6.48823e-09
-8.72158e-09
-5.76509e-09
-5.94062e-09
-5.01481e-09
-3.56569e-09
-4.24569e-09
-1.60116e-09
-3.46722e-09
-4.55821e-11
-2.69032e-09
1.10916e-09
-1.92765e-09
1.879e-09
-1.19411e-09
2.28905e-09
-5.07527e-10
2.3753e-09
1.10424e-10
2.18663e-09
6.33e-10
1.78704e-09
1.02707e-09
1.25787e-09
1.25209e-09
6.99334e-10
1.26012e-09
2.30836e-10
9.99506e-10
4.3205e-10
1.75531e-11
-2.76841e-10
-2.51461e-11
-5.60869e-10
-2.32001e-10
-4.24754e-10
-7.29652e-10
2.47537e-10
-1.61896e-09
1.27358e-09
-2.9671e-09
2.49219e-09
-4.81234e-09
3.79853e-09
-7.16944e-09
5.12412e-09
-1.00363e-08
6.42523e-09
-1.33985e-08
7.67343e-09
-1.72328e-08
8.85061e-09
-2.15105e-08
9.94612e-09
-2.61992e-08
1.09537e-08
-3.12644e-08
1.18703e-08
-3.66703e-08
1.26959e-08
-4.23816e-08
1.34313e-08
-4.83627e-08
1.40789e-08
-5.4579e-08
1.46412e-08
-6.0997e-08
1.51218e-08
-6.75844e-08
1.55239e-08
-7.431e-08
1.58512e-08
-8.11436e-08
1.61069e-08
-8.80565e-08
1.62943e-08
-9.50211e-08
1.64164e-08
-1.02011e-07
1.64759e-08
-1.08999e-07
1.6475e-08
-1.15962e-07
1.64159e-08
-1.22875e-07
1.63002e-08
-1.29714e-07
1.61294e-08
-1.36456e-07
1.59043e-08
-1.43078e-07
1.56259e-08
-1.49557e-07
1.52949e-08
-1.5587e-07
1.49116e-08
-1.61997e-07
1.44761e-08
-1.67913e-07
1.39887e-08
-1.73599e-07
1.34496e-08
-1.79031e-07
1.2859e-08
-1.84187e-07
1.2217e-08
-1.89048e-07
1.15241e-08
-1.9359e-07
1.07805e-08
-1.97794e-07
9.98711e-09
-2.01639e-07
9.14477e-09
-2.05105e-07
8.25478e-09
-2.08174e-07
7.31874e-09
-2.10826e-07
6.33863e-09
-2.13045e-07
5.31673e-09
-2.14814e-07
4.25565e-09
-2.1612e-07
3.1586e-09
-2.16949e-07
2.02932e-09
-2.17289e-07
8.71971e-10
-2.17132e-07
-3.0899e-10
-2.16469e-07
-1.50868e-09
-2.15295e-07
-2.72173e-09
-2.13609e-07
-3.9423e-09
-2.1141e-07
-5.16412e-09
-2.08699e-07
-6.38059e-09
-2.05484e-07
-7.58481e-09
-2.01773e-07
-8.76959e-09
-1.97576e-07
-9.92754e-09
-1.92908e-07
-1.10512e-08
-1.87788e-07
-1.21331e-08
-1.82237e-07
-1.31654e-08
-1.76277e-07
-1.41406e-08
-1.69937e-07
-1.5051e-08
-1.63247e-07
-1.58894e-08
-1.56239e-07
-1.66486e-08
-1.48948e-07
-1.73223e-08
-1.41414e-07
-1.79042e-08
-1.33676e-07
-1.83889e-08
-1.25778e-07
-1.87714e-08
-1.17762e-07
-1.90473e-08
-1.09675e-07
-1.9213e-08
-1.01564e-07
-1.92658e-08
-9.34753e-08
-1.92038e-08
-8.54575e-08
-1.90259e-08
-7.75579e-08
-1.87321e-08
-6.9824e-08
-1.83235e-08
-6.23022e-08
-1.78022e-08
-5.50376e-08
-1.71714e-08
-4.80735e-08
-1.64351e-08
-4.14513e-08
-1.55986e-08
-3.52094e-08
-1.46681e-08
-2.93833e-08
-1.36509e-08
-2.40047e-08
-1.25556e-08
-1.91012e-08
-1.13918e-08
-1.46956e-08
-1.01706e-08
-1.08058e-08
-8.90461e-09
-7.44354e-09
-7.608e-09
-4.61388e-09
-6.29689e-09
-2.3145e-09
-4.98971e-09
-5.3453e-10
-3.70763e-09
7.46622e-10
-2.47527e-09
1.56066e-09
-1.32156e-09
1.95199e-09
-2.80902e-10
1.97952e-09
6.05474e-10
1.71855e-09
1.28804e-09
1.26275e-09
1.70789e-09
7.26091e-10
1.79676e-09
2.46217e-10
1.47938e-09
6.78264e-10
-4.23739e-11
-2.34466e-10
-2.89405e-10
-3.13859e-10
-8.39031e-10
1.2488e-10
-1.79456e-09
1.20306e-09
-3.24122e-09
2.72018e-09
-5.23884e-09
4.48983e-09
-7.823e-09
6.38269e-09
-1.10084e-08
8.30948e-09
-1.47926e-08
1.02095e-08
-1.91604e-08
1.20412e-08
-2.40868e-08
1.3777e-08
-2.95401e-08
1.53994e-08
-3.54836e-08
1.68972e-08
-4.18785e-08
1.82652e-08
-4.86832e-08
1.95007e-08
-5.58564e-08
2.06045e-08
-6.3356e-08
2.15785e-08
-7.11413e-08
2.24265e-08
-7.91718e-08
2.31523e-08
-8.74084e-08
2.37605e-08
-9.58132e-08
2.4256e-08
-1.0435e-07
2.46432e-08
-1.12982e-07
2.49268e-08
-1.21677e-07
2.51108e-08
-1.304e-07
2.51991e-08
-1.3912e-07
2.5195e-08
-1.47805e-07
2.51016e-08
-1.56426e-07
2.49211e-08
-1.64953e-07
2.46556e-08
-1.73355e-07
2.43068e-08
-1.81605e-07
2.3876e-08
-1.89674e-07
2.33641e-08
-1.97535e-07
2.27718e-08
-2.05158e-07
2.20996e-08
-2.12517e-07
2.13479e-08
-2.19585e-07
2.05171e-08
-2.26333e-07
1.96076e-08
-2.32736e-07
1.86198e-08
-2.38767e-07
1.75545e-08
-2.44399e-07
1.64125e-08
-2.49606e-07
1.5195e-08
-2.54365e-07
1.39035e-08
-2.58651e-07
1.25401e-08
-2.62439e-07
1.11076e-08
-2.65709e-07
9.60872e-09
-2.6844e-07
8.04715e-09
-2.70611e-07
6.42712e-09
-2.72206e-07
4.75359e-09
-2.73209e-07
3.03216e-09
-2.73606e-07
1.26903e-09
-2.73386e-07
-5.28936e-10
-2.72541e-07
-2.35418e-09
-2.71064e-07
-4.19851e-09
-2.68953e-07
-6.05316e-09
-2.66208e-07
-7.90874e-09
-2.62834e-07
-9.75528e-09
-2.58836e-07
-1.15824e-08
-2.54226e-07
-1.33793e-08
-2.49019e-07
-1.51351e-08
-2.43232e-07
-1.68382e-08
-2.36888e-07
-1.84775e-08
-2.30012e-07
-2.00414e-08
-2.22634e-07
-2.15186e-08
-2.14787e-07
-2.28977e-08
-2.06508e-07
-2.41679e-08
-1.97838e-07
-2.53189e-08
-1.88819e-07
-2.63408e-08
-1.79499e-07
-2.72245e-08
-1.69926e-07
-2.79616e-08
-1.60153e-07
-2.85449e-08
-1.50232e-07
-2.89678e-08
-1.4022e-07
-2.92252e-08
-1.30173e-07
-2.93128e-08
-1.20149e-07
-2.9228e-08
-1.10205e-07
-2.89694e-08
-1.004e-07
-2.8537e-08
-9.07915e-08
-2.79324e-08
-8.14349e-08
-2.71589e-08
-7.23851e-08
-2.62211e-08
-6.36949e-08
-2.51254e-08
-5.5414e-08
-2.38795e-08
-4.75891e-08
-2.24931e-08
-4.02628e-08
-2.09772e-08
-3.34733e-08
-1.9345e-08
-2.7254e-08
-1.76111e-08
-2.16321e-08
-1.57924e-08
-1.66289e-08
-1.39078e-08
-1.22584e-08
-1.19785e-08
-8.52654e-09
-1.00287e-08
-5.43055e-09
-8.0857e-09
-2.95769e-09
-6.18048e-09
-1.08421e-09
-4.34876e-09
2.26028e-10
-2.6318e-09
1.02291e-09
-1.07779e-09
1.37163e-09
2.56756e-10
1.35428e-09
1.30539e-09
1.07179e-09
1.99038e-09
6.46392e-10
2.22215e-09
2.26211e-10
1.89956e-09
9.04472e-10
-1.19218e-10
-1.15222e-10
-5.9976e-10
1.66655e-10
-1.53037e-09
1.0555e-09
-2.99127e-09
2.66398e-09
-5.04898e-09
4.77792e-09
-7.7514e-09
7.19219e-09
-1.11265e-08
9.75781e-09
-1.51849e-08
1.23679e-08
-1.99212e-08
1.49457e-08
-2.53176e-08
1.74376e-08
-3.13467e-08
1.98062e-08
-3.79736e-08
2.20263e-08
-4.51587e-08
2.40823e-08
-5.28581e-08
2.59646e-08
-6.10263e-08
2.76689e-08
-6.96168e-08
2.91949e-08
-7.85825e-08
3.05442e-08
-8.78766e-08
3.17206e-08
-9.74532e-08
3.27289e-08
-1.07267e-07
3.35747e-08
-1.17275e-07
3.42638e-08
-1.27434e-07
3.48021e-08
-1.37703e-07
3.51954e-08
-1.48041e-07
3.54491e-08
-1.5841e-07
3.55682e-08
-1.68772e-07
3.5557e-08
-1.7909e-07
3.54195e-08
-1.89328e-07
3.5159e-08
-1.99451e-07
3.47782e-08
-2.09423e-07
3.42794e-08
-2.19212e-07
3.36644e-08
-2.28782e-07
3.29346e-08
-2.38101e-07
3.20909e-08
-2.47136e-07
3.11345e-08
-2.55854e-07
3.00658e-08
-2.64222e-07
2.88856e-08
-2.72209e-07
2.75945e-08
-2.79783e-07
2.61935e-08
-2.86912e-07
2.46838e-08
-2.93566e-07
2.30665e-08
-2.99715e-07
2.13437e-08
-3.05329e-07
1.95178e-08
-3.10381e-07
1.75919e-08
-3.14843e-07
1.55695e-08
-3.18689e-07
1.34552e-08
-3.21896e-07
1.12542e-08
-3.24442e-07
8.97238e-09
-3.26305e-07
6.61685e-09
-3.27468e-07
4.19546e-09
-3.27916e-07
1.71701e-09
-3.27636e-07
-8.08865e-10
-3.26619e-07
-3.37162e-09
-3.24858e-07
-5.95978e-09
-3.2235e-07
-8.56101e-09
-3.19096e-07
-1.11623e-08
-3.15102e-07
-1.37498e-08
-3.10375e-07
-1.63092e-08
-3.04929e-07
-1.88255e-08
-2.98781e-07
-2.12833e-08
-2.91952e-07
-2.36671e-08
-2.84468e-07
-2.5961e-08
-2.7636e-07
-2.81493e-08
-2.67663e-07
-3.02162e-08
-2.58414e-07
-3.21462e-08
-2.48658e-07
-3.39245e-08
-2.3844e-07
-3.55366e-08
-2.27811e-07
-3.69691e-08
-2.16826e-07
-3.82095e-08
-2.05542e-07
-3.92461e-08
-1.94018e-07
-4.00689e-08
-1.82317e-07
-4.06691e-08
-1.70502e-07
-4.10394e-08
-1.58641e-07
-4.11744e-08
-1.46799e-07
-4.10702e-08
-1.35043e-07
-4.0725e-08
-1.23441e-07
-4.01391e-08
-1.12059e-07
-3.93146e-08
-1.00962e-07
-3.8256e-08
-9.02127e-08
-3.69699e-08
-7.98729e-08
-3.54651e-08
-6.99998e-08
-3.37526e-08
-6.06471e-08
-3.18457e-08
-5.18642e-08
-2.97601e-08
-4.36953e-08
-2.7514e-08
-3.61785e-08
-2.51279e-08
-2.93457e-08
-2.26253e-08
-2.32211e-08
-2.00323e-08
-1.78212e-08
-1.73785e-08
-1.31531e-08
-1.46968e-08
-9.2143e-09
-1.20246e-08
-5.99112e-09
-9.40366e-09
-3.45811e-09
-6.88176e-09
-1.57662e-09
-4.51329e-09
-2.93662e-10
-2.36074e-09
4.5935e-10
-4.96263e-10
7.68053e-10
9.96681e-10
7.36874e-10
2.02155e-09
4.9152e-10
2.4675e-09
1.83292e-10
2.20778e-09
1.08776e-09
-2.08997e-10
9.37538e-11
-9.45909e-10
9.0361e-10
-2.28483e-09
2.39438e-09
-4.2832e-09
4.66236e-09
-6.98839e-09
7.48311e-09
-1.04337e-08
1.06375e-08
-1.46367e-08
1.39609e-08
-1.96005e-08
1.73317e-08
-2.53148e-08
2.066e-08
-3.17577e-08
2.38805e-08
-3.88984e-08
2.69468e-08
-4.66985e-08
2.98264e-08
-5.51144e-08
3.24982e-08
-6.40991e-08
3.49492e-08
-7.36029e-08
3.71727e-08
-8.35745e-08
3.91666e-08
-9.39626e-08
4.09323e-08
-1.04715e-07
4.24735e-08
-1.15782e-07
4.37957e-08
-1.27113e-07
4.49052e-08
-1.38658e-07
4.5809e-08
-1.5037e-07
4.65143e-08
-1.62203e-07
4.70279e-08
-1.7411e-07
4.73565e-08
-1.86048e-07
4.75062e-08
-1.97974e-07
4.74827e-08
-2.09845e-07
4.72906e-08
-2.2162e-07
4.69342e-08
-2.33259e-07
4.64172e-08
-2.44722e-07
4.57424e-08
-2.5597e-07
4.49121e-08
-2.66963e-07
4.39283e-08
-2.77665e-07
4.27925e-08
-2.88036e-07
4.15059e-08
-2.9804e-07
4.00696e-08
-3.07639e-07
3.84847e-08
-3.16797e-07
3.67524e-08
-3.25477e-07
3.48739e-08
-3.33645e-07
3.28509e-08
-3.41264e-07
3.06857e-08
-3.48301e-07
2.83808e-08
-3.54723e-07
2.59397e-08
-3.60498e-07
2.33666e-08
-3.65595e-07
2.06667e-08
-3.69985e-07
1.78459e-08
-3.73643e-07
1.49113e-08
-3.76541e-07
1.1871e-08
-3.78659e-07
8.73452e-09
-3.79976e-07
5.51222e-09
-3.80474e-07
2.21577e-09
-3.80141e-07
-1.14198e-09
-3.78966e-07
-4.54694e-09
-3.76942e-07
-7.98398e-09
-3.74066e-07
-1.14369e-08
-3.7034e-07
-1.48886e-08
-3.65769e-07
-1.83207e-08
-3.60363e-07
-2.17145e-08
-3.54139e-07
-2.50502e-08
-3.47114e-07
-2.83078e-08
-3.39314e-07
-3.14669e-08
-3.30769e-07
-3.45066e-08
-3.21512e-07
-3.74064e-08
-3.11582e-07
-4.01456e-08
-3.01024e-07
-4.27042e-08
-2.89886e-07
-4.50625e-08
-2.78221e-07
-4.7202e-08
-2.66085e-07
-4.9105e-08
-2.53539e-07
-5.07551e-08
-2.40648e-07
-5.21372e-08
-2.27479e-07
-5.32381e-08
-2.14102e-07
-5.40464e-08
-2.00589e-07
-5.45527e-08
-1.87013e-07
-5.47498e-08
-1.73451e-07
-5.46329e-08
-1.59976e-07
-5.41995e-08
-1.46665e-07
-5.34501e-08
-1.33592e-07
-5.23877e-08
-1.2083e-07
-5.1018e-08
-1.0845e-07
-4.93498e-08
-9.65206e-08
-4.73946e-08
-8.51062e-08
-4.5167e-08
-7.42674e-08
-4.26846e-08
-6.40594e-08
-3.99681e-08
-5.45321e-08
-3.70413e-08
-4.57285e-08
-3.39315e-08
-3.76845e-08
-3.06693e-08
-3.04278e-08
-2.7289e-08
-2.39772e-08
-2.38291e-08
-1.83416e-08
-2.03324e-08
-1.35193e-08
-1.68469e-08
-9.49693e-09
-1.3426e-08
-6.24861e-09
-1.01301e-08
-3.73478e-09
-7.02711e-09
-1.90133e-09
-4.19419e-09
-6.78496e-10
-1.7191e-09
2.02857e-11
2.97888e-10
2.99924e-10
1.74191e-09
2.8557e-10
2.48184e-09
1.25931e-10
2.36741e-09
1.21369e-09
-3.06783e-10
4.00535e-10
-1.31547e-09
1.91229e-09
-3.08083e-09
4.15977e-09
-5.63818e-09
7.21969e-09
-9.01472e-09
1.08596e-08
-1.32279e-08
1.48506e-08
-1.82837e-08
1.90166e-08
-2.41757e-08
2.32238e-08
-3.08868e-08
2.7371e-08
-3.83893e-08
3.13831e-08
-4.66478e-08
3.52053e-08
-5.56201e-08
3.87987e-08
-6.52589e-08
4.2137e-08
-7.55131e-08
4.52034e-08
-8.63292e-08
4.79888e-08
-9.76522e-08
5.04896e-08
-1.09426e-07
5.27065e-08
-1.21596e-07
5.46431e-08
-1.34105e-07
5.63053e-08
-1.469e-07
5.77002e-08
-1.59927e-07
5.88358e-08
-1.73133e-07
5.97202e-08
-1.86467e-07
6.03617e-08
-1.99878e-07
6.0768e-08
-2.13319e-07
6.09464e-08
-2.2674e-07
6.09037e-08
-2.40095e-07
6.06456e-08
-2.53337e-07
6.01771e-08
-2.66423e-07
5.95028e-08
-2.79307e-07
5.86262e-08
-2.91945e-07
5.75504e-08
-3.04295e-07
5.62776e-08
-3.16312e-07
5.481e-08
-3.27955e-07
5.31493e-08
-3.39183e-07
5.12971e-08
-3.49953e-07
4.92546e-08
-3.60224e-07
4.70238e-08
-3.69957e-07
4.46067e-08
-3.79112e-07
4.20054e-08
-3.87649e-07
3.92229e-08
-3.95531e-07
3.62631e-08
-4.02722e-07
3.31304e-08
-4.09186e-07
2.98306e-08
-4.14889e-07
2.637e-08
-4.198e-07
2.27568e-08
-4.23889e-07
1.9e-08
-4.27128e-07
1.51103e-08
-4.29493e-07
1.10995e-08
-4.30962e-07
6.98126e-09
-4.31516e-07
2.77033e-09
-4.31142e-07
-1.51685e-09
-4.29826e-07
-5.86243e-09
-4.27563e-07
-1.02472e-08
-4.24349e-07
-1.46507e-08
-4.20187e-07
-1.9051e-08
-4.15082e-07
-2.34252e-08
-4.09047e-07
-2.77495e-08
-4.02098e-07
-3.19991e-08
-3.94257e-07
-3.61487e-08
-3.85552e-07
-4.01724e-08
-3.76014e-07
-4.40444e-08
-3.65682e-07
-4.77384e-08
-3.54599e-07
-5.12287e-08
-3.42813e-07
-5.449e-08
-3.30378e-07
-5.74978e-08
-3.17351e-07
-6.02287e-08
-3.03796e-07
-6.26603e-08
-2.89779e-07
-6.47722e-08
-2.7537e-07
-6.65456e-08
-2.60645e-07
-6.79637e-08
-2.45679e-07
-6.90122e-08
-2.30552e-07
-6.96794e-08
-2.15346e-07
-6.99562e-08
-2.00142e-07
-6.98366e-08
-1.85024e-07
-6.93176e-08
-1.70074e-07
-6.83997e-08
-1.55375e-07
-6.70868e-08
-1.41007e-07
-6.5386e-08
-1.27049e-07
-6.33085e-08
-1.13574e-07
-6.08688e-08
-1.00656e-07
-5.80854e-08
-8.83602e-08
-5.49805e-08
-7.67481e-08
-5.15802e-08
-6.58747e-08
-4.79147e-08
-5.57879e-08
-4.40183e-08
-4.65277e-08
-3.99295e-08
-3.81253e-08
-3.56914e-08
-3.06023e-08
-3.13521e-08
-2.397e-08
-2.69647e-08
-1.82283e-08
-2.25886e-08
-1.3365e-08
-1.82893e-08
-9.35486e-09
-1.41402e-08
-6.15889e-09
-1.02231e-08
-3.72347e-09
-6.62961e-09
-1.97949e-09
-3.46308e-09
-8.41529e-10
-8.40081e-10
-2.06771e-10
1.10715e-09
4.63379e-11
2.22873e-09
5.99031e-11
2.35383e-09
1.27358e-09
-4.08818e-10
8.09332e-10
-1.69828e-09
3.20177e-09
-3.9007e-09
6.36217e-09
-7.02942e-09
1.03484e-08
-1.10918e-08
1.4922e-08
-1.6089e-08
1.98478e-08
-2.20134e-08
2.49411e-08
-2.88483e-08
3.00587e-08
-3.6568e-08
3.50907e-08
-4.51385e-08
3.99535e-08
-5.45186e-08
4.45854e-08
-6.46614e-08
4.89416e-08
-7.55154e-08
5.29909e-08
-8.70256e-08
5.67136e-08
-9.91347e-08
6.00979e-08
-1.11784e-07
6.31388e-08
-1.24914e-07
6.58362e-08
-1.38464e-07
6.81937e-08
-1.52376e-07
7.02174e-08
-1.66591e-07
7.19151e-08
-1.81051e-07
7.32958e-08
-1.957e-07
7.43686e-08
-2.10481e-07
7.51428e-08
-2.2534e-07
7.56276e-08
-2.40225e-07
7.58311e-08
-2.55082e-07
7.57611e-08
-2.69861e-07
7.54245e-08
-2.84512e-07
7.48274e-08
-2.98984e-07
7.39748e-08
-3.13228e-07
7.2871e-08
-3.27198e-07
7.15198e-08
-3.40845e-07
6.99243e-08
-3.54121e-07
6.80869e-08
-3.66982e-07
6.60098e-08
-3.7938e-07
6.3695e-08
-3.9127e-07
6.11448e-08
-4.02608e-07
5.83614e-08
-4.13348e-07
5.53472e-08
-4.23448e-07
5.21056e-08
-4.32866e-07
4.86405e-08
-4.4156e-07
4.49568e-08
-4.49489e-07
4.10602e-08
-4.56617e-07
3.6958e-08
-4.62905e-07
3.26585e-08
-4.6832e-07
2.81717e-08
-4.72829e-07
2.35091e-08
-4.76403e-07
1.8684e-08
-4.79015e-07
1.37112e-08
-4.80641e-07
8.60733e-09
-4.81261e-07
3.39089e-09
-4.8086e-07
-1.91789e-09
-4.79426e-07
-7.29702e-09
-4.7695e-07
-1.27229e-08
-4.73431e-07
-1.81702e-08
-4.68869e-07
-2.36123e-08
-4.63273e-07
-2.9021e-08
-4.56656e-07
-3.43671e-08
-4.49035e-07
-3.96203e-08
-4.40434e-07
-4.47497e-08
-4.30882e-07
-4.97237e-08
-4.20416e-07
-5.45105e-08
-4.09076e-07
-5.90783e-08
-3.96909e-07
-6.33956e-08
-3.83968e-07
-6.74317e-08
-3.70309e-07
-7.11565e-08
-3.55996e-07
-7.45415e-08
-3.41097e-07
-7.75595e-08
-3.25684e-07
-8.01854e-08
-3.09833e-07
-8.23963e-08
-2.93625e-07
-8.41718e-08
-2.77143e-07
-8.54944e-08
-2.60472e-07
-8.63498e-08
-2.43702e-07
-8.67268e-08
-2.2692e-07
-8.66181e-08
-2.10218e-07
-8.60201e-08
-1.93685e-07
-8.49332e-08
-1.77409e-07
-8.33623e-08
-1.61479e-07
-8.13161e-08
-1.45979e-07
-7.88081e-08
-1.30992e-07
-7.58561e-08
-1.16595e-07
-7.24827e-08
-1.0286e-07
-6.87151e-08
-8.98552e-08
-6.45852e-08
-7.764e-08
-6.01299e-08
-6.62673e-08
-5.5391e-08
-5.57813e-08
-5.04154e-08
-4.62172e-08
-4.52556e-08
-3.75998e-08
-3.99694e-08
-2.99432e-08
-3.46213e-08
-2.32497e-08
-2.92821e-08
-1.7509e-08
-2.403e-08
-1.26979e-08
-1.89513e-08
-8.77903e-09
-1.4142e-08
-5.70054e-09
-9.7081e-09
-3.39553e-09
-5.7681e-09
-1.78138e-09
-2.45423e-09
-7.5927e-10
8.50257e-11
-2.13493e-10
1.68295e-09
-1.09394e-11
2.15128e-09
1.26264e-09
-5.13036e-10
1.32238e-09
-2.08674e-09
4.77547e-09
-4.73112e-09
9.00656e-09
-8.43691e-09
1.40542e-08
-1.31924e-08
1.96775e-08
-1.89818e-08
2.56372e-08
-2.57836e-08
3.17429e-08
-3.35696e-08
3.78447e-08
-4.23047e-08
4.38258e-08
-5.19471e-08
4.9596e-08
-6.24496e-08
5.50879e-08
-7.37597e-08
6.02517e-08
-8.58214e-08
6.50526e-08
-9.85754e-08
6.94676e-08
-1.1196e-07
7.3483e-08
-1.25914e-07
7.70924e-08
-1.40373e-07
8.02952e-08
-1.55274e-07
8.30947e-08
-1.70554e-07
8.54976e-08
-1.86151e-07
8.7512e-08
-2.02003e-07
8.91478e-08
-2.1805e-07
9.04155e-08
-2.34232e-07
9.13251e-08
-2.50492e-07
9.18868e-08
-2.66771e-07
9.21102e-08
-2.83014e-07
9.20039e-08
-2.99165e-07
9.15759e-08
-3.15171e-07
9.0833e-08
-3.30977e-07
8.9781e-08
-3.46531e-07
8.84254e-08
-3.61782e-07
8.67702e-08
-3.76676e-07
8.4819e-08
-3.91164e-07
8.25751e-08
-4.05196e-07
8.00411e-08
-4.18721e-07
7.72198e-08
-4.31689e-07
7.41137e-08
-4.44054e-07
7.07258e-08
-4.55766e-07
6.70596e-08
-4.6678e-07
6.31191e-08
-4.77048e-07
5.89092e-08
-4.86528e-07
5.44362e-08
-4.95175e-07
4.97074e-08
-5.02948e-07
4.47315e-08
-5.09809e-07
3.9519e-08
-5.15719e-07
3.4082e-08
-5.20645e-07
2.84346e-08
-5.24554e-07
2.25929e-08
-5.27417e-07
1.65748e-08
-5.2921e-07
1.04006e-08
-5.29912e-07
4.09241e-09
-5.29505e-07
-2.32528e-09
-5.27976e-07
-8.8261e-09
-5.25317e-07
-1.53817e-08
-5.21525e-07
-2.19618e-08
-5.16603e-07
-2.85344e-08
-5.10558e-07
-3.50657e-08
-5.03404e-07
-4.1521e-08
-4.95161e-07
-4.78639e-08
-4.85853e-07
-5.40577e-08
-4.75512e-07
-6.00644e-08
-4.64176e-07
-6.58463e-08
-4.51889e-07
-7.13653e-08
-4.38701e-07
-7.65839e-08
-4.24667e-07
-8.14654e-08
-4.0985e-07
-8.5974e-08
-3.94315e-07
-9.00756e-08
-3.78137e-07
-9.37378e-08
-3.61392e-07
-9.69306e-08
-3.44162e-07
-9.96266e-08
-3.26532e-07
-1.01801e-07
-3.08592e-07
-1.03434e-07
-2.90434e-07
-1.04508e-07
-2.72152e-07
-1.05009e-07
-2.53842e-07
-1.04928e-07
-2.356e-07
-1.04262e-07
-2.17523e-07
-1.0301e-07
-1.99707e-07
-1.01178e-07
-1.82246e-07
-9.87775e-08
-1.65231e-07
-9.58231e-08
-1.4875e-07
-9.23366e-08
-1.32888e-07
-8.83448e-08
-1.17723e-07
-8.38801e-08
-1.03328e-07
-7.89805e-08
-8.97678e-08
-7.369e-08
-7.71007e-08
-6.80582e-08
-6.53752e-08
-6.21409e-08
-5.46307e-08
-5.6e-08
-4.48959e-08
-4.97043e-08
-3.61882e-08
-4.33291e-08
-2.8513e-08
-3.69573e-08
-2.18629e-08
-3.068e-08
-1.62174e-08
-2.45968e-08
-1.15419e-08
-1.88175e-08
-7.78745e-09
-1.34626e-08
-4.89053e-09
-8.66503e-09
-2.77265e-09
-4.57211e-09
-1.34034e-09
-1.34729e-09
-4.85139e-10
8.27749e-10
-8.40718e-11
1.7502e-09
1.17857e-09
-6.17223e-10
1.93958e-09
-2.47577e-09
6.63401e-09
-5.56202e-09
1.20928e-08
-9.84598e-09
1.83381e-08
-1.52962e-08
2.51277e-08
-2.18802e-08
3.22212e-08
-2.95623e-08
3.9425e-08
-3.83022e-08
4.65846e-08
-4.80546e-08
5.35781e-08
-5.87695e-08
6.03109e-08
-7.03924e-08
6.67107e-08
-8.28651e-08
7.27244e-08
-9.61264e-08
7.83139e-08
-1.10112e-07
8.34537e-08
-1.24758e-07
8.81287e-08
-1.39997e-07
9.23313e-08
-1.55762e-07
9.60606e-08
-1.71988e-07
9.93198e-08
-1.88606e-07
1.02116e-07
-2.05552e-07
1.04458e-07
-2.22761e-07
1.06357e-07
-2.40168e-07
1.07823e-07
-2.57711e-07
1.08868e-07
-2.75328e-07
1.09504e-07
-2.92959e-07
1.09741e-07
-3.10544e-07
1.09588e-07
-3.28023e-07
1.09055e-07
-3.4534e-07
1.0815e-07
-3.62437e-07
1.06878e-07
-3.79257e-07
1.05246e-07
-3.95745e-07
1.03259e-07
-4.11847e-07
1.0092e-07
-4.27507e-07
9.82349e-08
-4.42671e-07
9.52054e-08
-4.57286e-07
9.18352e-08
-4.713e-07
8.81278e-08
-4.84661e-07
8.40866e-08
-4.97318e-07
7.97159e-08
-5.09219e-07
7.50209e-08
-5.20318e-07
7.00078e-08
-5.30566e-07
6.46839e-08
-5.39916e-07
5.90581e-08
-5.48326e-07
5.31412e-08
-5.55753e-07
4.69456e-08
-5.62157e-07
4.04859e-08
-5.67501e-07
3.37789e-08
-5.71752e-07
2.68437e-08
-5.74879e-07
1.97016e-08
-5.76854e-07
1.23764e-08
-5.77657e-07
4.89465e-09
-5.77267e-07
-2.7151e-09
-5.75671e-07
-1.04217e-08
-5.72861e-07
-1.81918e-08
-5.68833e-07
-2.59897e-08
-5.6359e-07
-3.37779e-08
-5.57139e-07
-4.15168e-08
-5.49494e-07
-4.91656e-08
-5.40676e-07
-5.66817e-08
-5.30712e-07
-6.40219e-08
-5.19635e-07
-7.11419e-08
-5.07484e-07
-7.79973e-08
-4.94305e-07
-8.45437e-08
-4.80152e-07
-9.07371e-08
-4.65083e-07
-9.65343e-08
-4.49164e-07
-1.01894e-07
-4.32464e-07
-1.06775e-07
-4.15062e-07
-1.1114e-07
-3.97039e-07
-1.14954e-07
-3.78481e-07
-1.18185e-07
-3.59479e-07
-1.20803e-07
-3.40128e-07
-1.22785e-07
-3.20526e-07
-1.2411e-07
-3.00773e-07
-1.24762e-07
-2.80971e-07
-1.2473e-07
-2.61223e-07
-1.2401e-07
-2.41631e-07
-1.22602e-07
-2.22298e-07
-1.20512e-07
-2.03324e-07
-1.17751e-07
-1.84807e-07
-1.1434e-07
-1.66843e-07
-1.10301e-07
-1.4952e-07
-1.05667e-07
-1.32924e-07
-1.00476e-07
-1.17133e-07
-9.47714e-08
-1.02218e-07
-8.86047e-08
-8.82428e-08
-8.20339e-08
-7.526e-08
-7.51237e-08
-6.33138e-08
-6.79462e-08
-5.24372e-08
-6.05808e-08
-4.26518e-08
-5.31145e-08
-3.39666e-08
-4.56425e-08
-2.6378e-08
-3.82686e-08
-1.98689e-08
-3.1106e-08
-1.44083e-08
-2.42781e-08
-9.9512e-09
-1.79196e-08
-6.43837e-09
-1.21779e-08
-3.79638e-09
-7.2141e-09
-1.93798e-09
-3.20569e-09
-7.62696e-10
-3.47534e-10
-1.57895e-10
1.1454e-09
1.02067e-09
-7.20272e-10
2.65986e-09
-2.86153e-09
8.77526e-09
-6.38702e-09
1.56183e-08
-1.12458e-08
2.3197e-08
-1.73882e-08
3.12701e-08
-2.47651e-08
3.95982e-08
-3.3326e-08
4.79859e-08
-4.30182e-08
5.62768e-08
-5.37859e-08
6.43458e-08
-6.55702e-08
7.20951e-08
-7.8309e-08
7.94496e-08
-9.19377e-08
8.63532e-08
-1.0639e-07
9.27657e-08
-1.21596e-07
9.86603e-08
-1.37488e-07
1.0402e-07
-1.53995e-07
1.08838e-07
-1.71046e-07
1.13112e-07
-1.88572e-07
1.16846e-07
-2.06502e-07
1.20047e-07
-2.24769e-07
1.22724e-07
-2.43303e-07
1.24891e-07
-2.62038e-07
1.26558e-07
-2.80908e-07
1.27738e-07
-2.99848e-07
1.28444e-07
-3.18794e-07
1.28687e-07
-3.37683e-07
1.28477e-07
-3.56453e-07
1.27826e-07
-3.75043e-07
1.2674e-07
-3.93393e-07
1.25228e-07
-4.11443e-07
1.23296e-07
-4.29134e-07
1.2095e-07
-4.46408e-07
1.18194e-07
-4.63206e-07
1.15034e-07
-4.79473e-07
1.11472e-07
-4.95151e-07
1.07513e-07
-5.10185e-07
1.03161e-07
-5.24519e-07
9.84205e-08
-5.38099e-07
9.32961e-08
-5.50872e-07
8.77943e-08
-5.62787e-07
8.19224e-08
-5.73792e-07
7.56894e-08
-5.8384e-07
6.91057e-08
-5.92883e-07
6.21841e-08
-6.00876e-07
5.49392e-08
-6.07779e-07
4.73883e-08
-6.13551e-07
3.95508e-08
-6.18156e-07
3.14491e-08
-6.21563e-07
2.3108e-08
-6.23742e-07
1.45555e-08
-6.24669e-07
5.82188e-09
-6.24324e-07
-3.05939e-09
-6.22694e-07
-1.20523e-08
-6.19767e-07
-2.11183e-08
-6.15541e-07
-3.0216e-08
-6.10017e-07
-3.93021e-08
-6.03203e-07
-4.83309e-08
-5.95113e-07
-5.72552e-08
-5.85769e-07
-6.6026e-08
-5.75198e-07
-7.45931e-08
-5.63434e-07
-8.29057e-08
-5.50519e-07
-9.09124e-08
-5.365e-07