/*--------------------------------*- C++ -*----------------------------------*\
| =========                 |                                                 |
| \\      /  F ield         | OpenFOAM: The Open Source CFD Toolbox           |
|  \\    /   O peration     | Version:  2512                                  |
|   \\  /    A nd           | Website:  www.openfoam.com                      |
|    \\/     M anipulation  |                                                 |
\*---------------------------------------------------------------------------*/
FoamFile
{
    version     2.0;
    format      ascii;
    arch        "LSB;label=32;scalar=64";
    class       volVectorField;
    location    "0.5";
    object      U;
}
// * * * * * * * * * * * * * * * * * * * * * * * * * * * * * * * * * * * * * //

dimensions      [0 1 -1 0 0 0 0];

internalField   nonuniform List<vector> 
10000
(
(2.76366e-06 -4.28601e-06 0)
(1.70333e-05 -1.26973e-05 0)
(4.23279e-05 -1.55204e-05 0)
(6.67092e-05 -1.26301e-05 0)
(8.16568e-05 -7.69329e-06 0)
(8.40425e-05 -2.60198e-06 0)
(7.38092e-05 2.17012e-06 0)
(5.14072e-05 6.40224e-06 0)
(1.75797e-05 1.02102e-05 0)
(-2.67269e-05 1.35882e-05 0)
(-8.06787e-05 1.65402e-05 0)
(-0.000143346 1.91875e-05 0)
(-0.000213887 2.1493e-05 0)
(-0.000291451 2.34651e-05 0)
(-0.000375298 2.52444e-05 0)
(-0.000464637 2.67714e-05 0)
(-0.000558836 2.80643e-05 0)
(-0.000657188 2.91832e-05 0)
(-0.000759068 3.01163e-05 0)
(-0.000863974 3.08602e-05 0)
(-0.000971262 3.14479e-05 0)
(-0.00108046 3.19096e-05 0)
(-0.00119113 3.22331e-05 0)
(-0.00130278 3.24215e-05 0)
(-0.00141498 3.25097e-05 0)
(-0.00152735 3.24933e-05 0)
(-0.0016395 3.23565e-05 0)
(-0.00175106 3.21212e-05 0)
(-0.00186167 3.18169e-05 0)
(-0.00197098 3.14319e-05 0)
(-0.00207866 3.09371e-05 0)
(-0.00218435 3.03339e-05 0)
(-0.00228771 2.96254e-05 0)
(-0.00238839 2.88158e-05 0)
(-0.00248607 2.79133e-05 0)
(-0.00258039 2.69165e-05 0)
(-0.00267098 2.58314e-05 0)
(-0.00275751 2.46554e-05 0)
(-0.00283964 2.33697e-05 0)
(-0.002917 2.19615e-05 0)
(-0.00298922 2.044e-05 0)
(-0.00305597 1.88246e-05 0)
(-0.00311688 1.71096e-05 0)
(-0.00317162 1.52851e-05 0)
(-0.00321988 1.33662e-05 0)
(-0.00326133 1.13606e-05 0)
(-0.00329566 9.2611e-06 0)
(-0.00332259 7.07166e-06 0)
(-0.00334188 4.8008e-06 0)
(-0.00335326 2.46214e-06 0)
(-0.00335657 7.87929e-08 0)
(-0.00335164 -2.34375e-06 0)
(-0.00333833 -4.81462e-06 0)
(-0.00331654 -7.3225e-06 0)
(-0.00328621 -9.84158e-06 0)
(-0.00324734 -1.23549e-05 0)
(-0.00319997 -1.48472e-05 0)
(-0.00314422 -1.73006e-05 0)
(-0.00308024 -1.97045e-05 0)
(-0.00300821 -2.20492e-05 0)
(-0.00292839 -2.43156e-05 0)
(-0.00284108 -2.64842e-05 0)
(-0.00274666 -2.8542e-05 0)
(-0.00264553 -3.04703e-05 0)
(-0.00253819 -3.22425e-05 0)
(-0.00242519 -3.38382e-05 0)
(-0.00230711 -3.52481e-05 0)
(-0.00218459 -3.64645e-05 0)
(-0.00205831 -3.74759e-05 0)
(-0.00192898 -3.82718e-05 0)
(-0.00179733 -3.88428e-05 0)
(-0.00166416 -3.91759e-05 0)
(-0.00153027 -3.9258e-05 0)
(-0.00139649 -3.90837e-05 0)
(-0.00126367 -3.86529e-05 0)
(-0.00113267 -3.7963e-05 0)
(-0.00100433 -3.70111e-05 0)
(-0.000879501 -3.58022e-05 0)
(-0.00075899 -3.43497e-05 0)
(-0.00064359 -3.26675e-05 0)
(-0.000534054 -3.07639e-05 0)
(-0.0004311 -2.86451e-05 0)
(-0.000335405 -2.63199e-05 0)
(-0.000247601 -2.38019e-05 0)
(-0.000168263 -2.11082e-05 0)
(-9.78978e-05 -1.82605e-05 0)
(-3.69311e-05 -1.52846e-05 0)
(1.43048e-05 -1.22108e-05 0)
(5.55865e-05 -9.07276e-06 0)
(8.6815e-05 -5.90957e-06 0)
(0.000108036 -2.76909e-06 0)
(0.000119467 2.89772e-07 0)
(0.000121533 3.19315e-06 0)
(0.000114923 5.84067e-06 0)
(0.000100679 8.08614e-06 0)
(8.03291e-05 9.70519e-06 0)
(5.60629e-05 1.03499e-05 0)
(3.10591e-05 9.47154e-06 0)
(1.04281e-05 6.3119e-06 0)
(1.01741e-06 1.02609e-06 0)
(2.87429e-06 -1.42372e-05 0)
(2.27049e-05 -3.62196e-05 0)
(5.28962e-05 -4.33952e-05 0)
(7.83976e-05 -3.23396e-05 0)
(8.57135e-05 -1.23152e-05 0)
(6.73799e-05 1.07865e-05 0)
(2.07476e-05 3.4185e-05 0)
(-5.47512e-05 5.6726e-05 0)
(-0.000158456 7.79489e-05 0)
(-0.000289321 9.75366e-05 0)
(-0.000445511 0.000115526 0)
(-0.000625156 0.000131879 0)
(-0.000826395 0.000146552 0)
(-0.00104711 0.000159745 0)
(-0.00128536 0.000171397 0)
(-0.00153928 0.000181701 0)
(-0.00180691 0.000190613 0)
(-0.00208655 0.000198352 0)
(-0.00237648 0.000204844 0)
(-0.00267502 0.000210239 0)
(-0.00298075 0.0002146 0)
(-0.00329216 0.000217972 0)
(-0.00360784 0.000220412 0)
(-0.00392655 0.000221986 0)
(-0.00424704 0.000222738 0)
(-0.00456809 0.000222706 0)
(-0.00488856 0.000221908 0)
(-0.00520739 0.00022038 0)
(-0.00552348 0.000218145 0)
(-0.00583581 0.000215229 0)
(-0.00614333 0.000211626 0)
(-0.00644503 0.000207331 0)
(-0.0067399 0.000202358 0)
(-0.00702695 0.000196686 0)
(-0.00730515 0.000190312 0)
(-0.00757352 0.000183248 0)
(-0.00783106 0.000175504 0)
(-0.00807674 0.000167079 0)
(-0.00830956 0.000157944 0)
(-0.00852853 0.000148096 0)
(-0.00873267 0.000137545 0)
(-0.00892097 0.000126301 0)
(-0.00909247 0.000114384 0)
(-0.00924626 0.000101814 0)
(-0.00938142 8.86115e-05 0)
(-0.00949707 7.48065e-05 0)
(-0.0095924 6.0423e-05 0)
(-0.00966665 4.54956e-05 0)
(-0.00971912 3.00861e-05 0)
(-0.00974919 1.42662e-05 0)
(-0.00975632 -1.89967e-06 0)
(-0.00974005 -1.83559e-05 0)
(-0.00970007 -3.50451e-05 0)
(-0.00963615 -5.1889e-05 0)
(-0.00954815 -6.87876e-05 0)
(-0.00943607 -8.56357e-05 0)
(-0.0093001 -0.000102331 0)
(-0.00914053 -0.000118776 0)
(-0.00895778 -0.000134873 0)
(-0.00875244 -0.000150521 0)
(-0.00852528 -0.000165612 0)
(-0.00827715 -0.000180038 0)
(-0.00800909 -0.000193689 0)
(-0.00772235 -0.000206441 0)
(-0.00741827 -0.000218172 0)
(-0.00709833 -0.000228777 0)
(-0.00676417 -0.00023817 0)
(-0.00641758 -0.000246272 0)
(-0.00606047 -0.000253007 0)
(-0.0056948 -0.000258301 0)
(-0.00532265 -0.000262088 0)
(-0.00494621 -0.000264306 0)
(-0.00456772 -0.000264905 0)
(-0.00418945 -0.00026385 0)
(-0.00381374 -0.000261124 0)
(-0.00344293 -0.000256722 0)
(-0.00307934 -0.000250656 0)
(-0.00272526 -0.000242958 0)
(-0.00238293 -0.000233681 0)
(-0.00205454 -0.000222887 0)
(-0.00174216 -0.000210645 0)
(-0.00144776 -0.000197027 0)
(-0.00117316 -0.000182125 0)
(-0.000920061 -0.000166047 0)
(-0.000689972 -0.000148919 0)
(-0.000484213 -0.00013089 0)
(-0.000303854 -0.000112131 0)
(-0.0001497 -9.28415e-05 0)
(-2.22582e-05 -7.32536e-05 0)
(7.83052e-05 -5.36348e-05 0)
(0.000152229 -3.42992e-05 0)
(0.000200228 -1.56241e-05 0)
(0.000223584 1.92634e-06 0)
(0.000224276 1.77576e-05 0)
(0.000205152 3.10764e-05 0)
(0.000170161 4.08036e-05 0)
(0.000124529 4.54748e-05 0)
(7.50315e-05 4.31307e-05 0)
(3.13567e-05 3.14786e-05 0)
(6.23957e-06 1.03893e-05 0)
(1.01252e-06 -2.36844e-05 0)
(1.31188e-05 -5.73426e-05 0)
(2.66395e-05 -6.49306e-05 0)
(2.85072e-05 -3.86438e-05 0)
(4.84422e-06 7.47613e-06 0)
(-5.35006e-05 6.25155e-05 0)
(-0.000150894 0.000120595 0)
(-0.000289169 0.000178512 0)
(-0.000468608 0.00023424 0)
(-0.00068795 0.000286943 0)
(-0.000945369 0.000335998 0)
(-0.00123862 0.000381088 0)
(-0.00156486 0.000422229 0)
(-0.00192142 0.000459299 0)
(-0.00230545 0.000492464 0)
(-0.00271397 0.000521833 0)
(-0.00314429 0.00054756 0)
(-0.00359366 0.000569754 0)
(-0.00405943 0.000588679 0)
(-0.00453909 0.000604428 0)
(-0.00503024 0.000617191 0)
(-0.00553058 0.000627162 0)
(-0.0060379 0.000634434 0)
(-0.00655012 0.00063916 0)
(-0.00706522 0.000641487 0)
(-0.00758127 0.000641495 0)
(-0.00809641 0.000639255 0)
(-0.00860884 0.000634859 0)
(-0.00911679 0.000628356 0)
(-0.00961855 0.000619775 0)
(-0.0101125 0.00060917 0)
(-0.0105969 0.00059656 0)
(-0.01107 0.000581944 0)
(-0.0115304 0.000565319 0)
(-0.0119764 0.000546674 0)
(-0.0124062 0.000526016 0)
(-0.0128184 0.000503355 0)
(-0.0132113 0.000478702 0)
(-0.0135833 0.000452046 0)
(-0.0139327 0.000423377 0)
(-0.0142581 0.000392727 0)
(-0.0145579 0.000360138 0)
(-0.0148306 0.000325637 0)
(-0.0150747 0.000289291 0)
(-0.0152888 0.000251181 0)
(-0.0154714 0.000211379 0)
(-0.0156215 0.000169977 0)
(-0.0157377 0.0001271 0)
(-0.0158191 8.28951e-05 0)
(-0.0158646 3.75413e-05 0)
(-0.0158735 -8.77635e-06 0)
(-0.0158451 -5.58883e-05 0)
(-0.0157788 -0.000103601 0)
(-0.0156744 -0.000151673 0)
(-0.0155317 -0.000199843 0)
(-0.0153507 -0.000247846 0)
(-0.0151318 -0.000295402 0)
(-0.0148755 -0.000342218 0)
(-0.0145824 -0.000388011 0)
(-0.0142534 -0.000432487 0)
(-0.0138899 -0.00047534 0)
(-0.0134933 -0.000516262 0)
(-0.0130651 -0.00055494 0)
(-0.0126074 -0.000591059 0)
(-0.0121223 -0.000624304 0)
(-0.0116121 -0.000654387 0)
(-0.0110794 -0.000681052 0)
(-0.010527 -0.00070406 0)
(-0.00995791 -0.00072319 0)
(-0.00937523 -0.000738238 0)
(-0.00878224 -0.000749024 0)
(-0.00818235 -0.000755391 0)
(-0.00757906 -0.000757215 0)
(-0.00697596 -0.000754411 0)
(-0.00637666 -0.000746937 0)
(-0.00578479 -0.000734787 0)
(-0.00520397 -0.000717996 0)
(-0.00463777 -0.000696653 0)
(-0.00408969 -0.000670888 0)
(-0.0035631 -0.00064087 0)
(-0.00306125 -0.000606797 0)
(-0.00258718 -0.000568905 0)
(-0.00214371 -0.000527472 0)
(-0.00173345 -0.000482824 0)
(-0.0013587 -0.000435338 0)
(-0.00102142 -0.000385446 0)
(-0.000723213 -0.000333643 0)
(-0.000465253 -0.000280497 0)
(-0.00024824 -0.000226659 0)
(-7.23452e-05 -0.00017288 0)
(6.28817e-05 -0.000120037 0)
(0.000158611 -6.91716e-05 0)
(0.000216859 -2.15427e-05 0)
(0.000240634 2.12936e-05 0)
(0.00023414 5.73754e-05 0)
(0.000202985 8.42105e-05 0)
(0.000154293 9.8672e-05 0)
(9.68351e-05 9.69801e-05 0)
(4.28693e-05 7.50716e-05 0)
(9.32356e-06 3.08421e-05 0)
(2.68859e-07 -2.82787e-05 0)
(2.52111e-06 -6.30634e-05 0)
(-7.29535e-06 -6.0854e-05 0)
(-3.97216e-05 -1.081e-05 0)
(-0.00010677 6.98049e-05 0)
(-0.000217393 0.000166422 0)
(-0.000376383 0.000269906 0)
(-0.000586418 0.000374455 0)
(-0.000847814 0.000476715 0)
(-0.00115972 0.000574377 0)
(-0.00152025 0.000666126 0)
(-0.00192655 0.000751228 0)
(-0.00237571 0.000829305 0)
(-0.00286431 0.000900089 0)
(-0.00338871 0.000963777 0)
(-0.00394546 0.00102034 0)
(-0.00453095 0.00107009 0)
(-0.00514167 0.0011132 0)
(-0.0057742 0.00115001 0)
(-0.00642525 0.00118076 0)
(-0.00709165 0.00120577 0)
(-0.00777036 0.00122531 0)
(-0.00845839 0.00123962 0)
(-0.00915292 0.00124896 0)
(-0.00985129 0.00125354 0)
(-0.0105509 0.00125354 0)
(-0.0112491 0.00124913 0)
(-0.0119434 0.00124044 0)
(-0.0126316 0.00122757 0)
(-0.0133112 0.00121058 0)
(-0.01398 0.00118956 0)
(-0.0146355 0.00116456 0)
(-0.0152757 0.0011356 0)
(-0.0158983 0.00110269 0)
(-0.016501 0.00106582 0)
(-0.0170817 0.00102503 0)
(-0.0176381 0.000980319 0)
(-0.018168 0.000931682 0)
(-0.0186694 0.000879149 0)
(-0.0191401 0.000822762 0)
(-0.0195779 0.000762551 0)
(-0.0199808 0.000698579 0)
(-0.0203469 0.00063095 0)
(-0.0206741 0.000559784 0)
(-0.0209605 0.000485231 0)
(-0.0212045 0.000407454 0)
(-0.0214043 0.000326641 0)
(-0.0215584 0.000243041 0)
(-0.0216655 0.00015695 0)
(-0.0217242 6.86794e-05 0)
(-0.0217335 -2.14337e-05 0)
(-0.0216927 -0.000113013 0)
(-0.0216009 -0.000205653 0)
(-0.021458 -0.000298912 0)
(-0.0212637 -0.000392303 0)
(-0.0210181 -0.000485309 0)
(-0.0207216 -0.000577405 0)
(-0.0203751 -0.000668044 0)
(-0.0199793 -0.000756653 0)
(-0.0195357 -0.000842656 0)
(-0.0190458 -0.000925475 0)
(-0.0185117 -0.00100452 0)
(-0.0179355 -0.00107921 0)
(-0.0173198 -0.00114893 0)
(-0.0166675 -0.00121312 0)
(-0.0159817 -0.00127124 0)
(-0.0152659 -0.00132279 0)
(-0.0145237 -0.0013673 0)
(-0.0137591 -0.00140434 0)
(-0.0129762 -0.00143352 0)
(-0.0121793 -0.00145451 0)
(-0.0113731 -0.00146702 0)
(-0.010562 -0.00147085 0)
(-0.00975082 -0.00146582 0)
(-0.00894431 -0.00145187 0)
(-0.00814726 -0.00142899 0)
(-0.00736443 -0.00139726 0)
(-0.0066005 -0.00135684 0)
(-0.00586008 -0.00130798 0)
(-0.00514759 -0.00125099 0)
(-0.00446729 -0.00118627 0)
(-0.00382318 -0.00111428 0)
(-0.00321894 -0.00103559 0)
(-0.00265796 -0.000950843 0)
(-0.00214322 -0.000860778 0)
(-0.00167727 -0.000766245 0)
(-0.00126215 -0.000668202 0)
(-0.000899339 -0.000567743 0)
(-0.000589698 -0.000466111 0)
(-0.000333398 -0.000364735 0)
(-0.000129812 -0.000265267 0)
(2.26026e-05 -0.000169646 0)
(0.000126424 -8.0168e-05 0)
(0.000185418 3.97985e-07 0)
(0.000204714 6.86842e-05 0)
(0.000190995 0.000120582 0)
(0.000152553 0.00015114 0)
(9.94009e-05 0.000154586 0)
(4.54245e-05 0.000124645 0)
(1.01808e-05 5.56245e-05 0)
(-7.16235e-07 -2.71598e-05 0)
(-1.01807e-05 -4.90815e-05 0)
(-4.74797e-05 -2.39236e-05 0)
(-0.00012063 6.0585e-05 0)
(-0.000238785 0.000185126 0)
(-0.000409756 0.000332217 0)
(-0.000638309 0.000489945 0)
(-0.000926601 0.000650444 0)
(-0.00127531 0.000808429 0)
(-0.00168347 0.000960365 0)
(-0.00214886 0.00110403 0)
(-0.0026687 0.00123804 0)
(-0.00323949 0.00136144 0)
(-0.00385739 0.00147399 0)
(-0.00451842 0.00157545 0)
(-0.00521835 0.00166595 0)
(-0.005953 0.00174573 0)
(-0.00671827 0.0018151 0)
(-0.00751005 0.00187442 0)
(-0.00832436 0.00192409 0)
(-0.00915735 0.00196454 0)
(-0.0100053 0.00199615 0)
(-0.0108646 0.00201933 0)
(-0.0117318 0.00203442 0)
(-0.0126035 0.00204173 0)
(-0.0134765 0.00204155 0)
(-0.0143475 0.00203415 0)
(-0.0152136 0.00201972 0)
(-0.0160717 0.00199842 0)
(-0.0169189 0.0019704 0)
(-0.0177522 0.00193574 0)
(-0.0185688 0.00189453 0)
(-0.019366 0.00184681 0)
(-0.0201409 0.00179263 0)
(-0.0208907 0.00173203 0)
(-0.0216127 0.001665 0)
(-0.0223042 0.00159159 0)
(-0.0229625 0.00151183 0)
(-0.0235848 0.00142575 0)
(-0.0241685 0.00133344 0)
(-0.0247111 0.00123497 0)
(-0.0252101 0.00113046 0)
(-0.0256629 0.00102008 0)
(-0.0260671 0.000904042 0)
(-0.0264206 0.000782577 0)
(-0.0267211 0.000655973 0)
(-0.0269667 0.000524566 0)
(-0.0271554 0.000388748 0)
(-0.0272857 0.000248983 0)
(-0.027356 0.000105785 0)
(-0.0273651 -4.0296e-05 0)
(-0.027312 -0.000188657 0)
(-0.027196 -0.000338626 0)
(-0.0270166 -0.000489481 0)
(-0.0267738 -0.000640457 0)
(-0.0264677 -0.000790743 0)
(-0.0260989 -0.000939487 0)
(-0.0256682 -0.00108581 0)
(-0.0251769 -0.00122879 0)
(-0.0246267 -0.00136753 0)
(-0.0240195 -0.00150107 0)
(-0.0233578 -0.00162849 0)
(-0.0226443 -0.00174885 0)
(-0.0218822 -0.00186121 0)
(-0.021075 -0.00196469 0)
(-0.0202265 -0.00205842 0)
(-0.019341 -0.0021416 0)
(-0.0184228 -0.00221348 0)
(-0.0174769 -0.00227339 0)
(-0.0165083 -0.0023207 0)
(-0.0155222 -0.0023549 0)
(-0.0145242 -0.00237553 0)
(-0.0135198 -0.00238228 0)
(-0.0125148 -0.00237489 0)
(-0.011515 -0.00235327 0)
(-0.0105262 -0.0023174 0)
(-0.00955404 -0.00226742 0)
(-0.00860438 -0.00220358 0)
(-0.00768272 -0.00212628 0)
(-0.00679445 -0.00203603 0)
(-0.0059447 -0.00193347 0)
(-0.0051383 -0.00181936 0)
(-0.00437973 -0.00169462 0)
(-0.00367304 -0.0015603 0)
(-0.00302185 -0.00141761 0)
(-0.00242919 -0.00126792 0)
(-0.00189751 -0.00111278 0)
(-0.00142858 -0.00095393 0)
(-0.00102341 -0.000793355 0)
(-0.000682193 -0.000633308 0)
(-0.000404194 -0.000476375 0)
(-0.000187617 -0.000325541 0)
(-2.9497e-05 -0.000184295 0)
(7.44343e-05 -5.67445e-05 0)
(0.000129899 5.22363e-05 0)
(0.000144236 0.000136857 0)
(0.000126441 0.000190292 0)
(8.72997e-05 0.000204657 0)
(4.15396e-05 0.000171134 0)
(9.61914e-06 7.9876e-05 0)
(-2.51774e-06 -1.93717e-05 0)
(-2.56961e-05 -1.32503e-05 0)
(-9.40136e-05 4.93221e-05 0)
(-0.000212118 0.000180405 0)
(-0.000386507 0.000359295 0)
(-0.000623582 0.000566052 0)
(-0.000926947 0.000786836 0)
(-0.0012986 0.00101168 0)
(-0.00173862 0.00123363 0)
(-0.00224583 0.00144802 0)
(-0.00281789 0.00165151 0)
(-0.00345161 0.00184197 0)
(-0.00414327 0.0020181 0)
(-0.00488861 0.00217914 0)
(-0.00568313 0.00232477 0)
(-0.00652223 0.00245503 0)
(-0.00740121 0.00257006 0)
(-0.00831536 0.00267031 0)
(-0.00926003 0.00275616 0)
(-0.0102307 0.00282814 0)
(-0.0112228 0.00288679 0)
(-0.0122322 0.00293263 0)
(-0.0132546 0.00296617 0)
(-0.0142859 0.0029879 0)
(-0.0153223 0.00299826 0)
(-0.0163598 0.00299761 0)
(-0.0173947 0.00298631 0)
(-0.0184233 0.00296464 0)
(-0.0194422 0.00293285 0)
(-0.0204479 0.00289113 0)
(-0.0214368 0.00283963 0)
(-0.0224055 0.00277846 0)
(-0.0233508 0.00270771 0)
(-0.0242694 0.00262743 0)
(-0.0251578 0.0025377 0)
(-0.0260129 0.00243857 0)
(-0.0268315 0.00233007 0)
(-0.0276103 0.00221228 0)
(-0.0283462 0.00208528 0)
(-0.0290361 0.00194919 0)
(-0.029677 0.00180415 0)
(-0.0302659 0.00165036 0)
(-0.0307999 0.00148806 0)
(-0.0312762 0.00131758 0)
(-0.0316923 0.00113927 0)
(-0.0320455 0.000953562 0)
(-0.0323337 0.000760963 0)
(-0.0325546 0.000562066 0)
(-0.0327063 0.000357534 0)
(-0.0327872 0.000148106 0)
(-0.0327959 -6.54027e-05 0)
(-0.0327312 -0.000282097 0)
(-0.0325924 -0.000501005 0)
(-0.032379 -0.000721081 0)
(-0.0320908 -0.000941217 0)
(-0.0317283 -0.00116024 0)
(-0.0312919 -0.00137693 0)
(-0.0307829 -0.00159001 0)
(-0.0302027 -0.00179816 0)
(-0.0295532 -0.00200006 0)
(-0.0288369 -0.00219437 0)
(-0.0280566 -0.00237974 0)
(-0.0272154 -0.00255482 0)
(-0.026317 -0.00271829 0)
(-0.0253657 -0.00286887 0)
(-0.0243657 -0.00300533 0)
(-0.0233221 -0.00312653 0)
(-0.0222401 -0.00323138 0)
(-0.0211252 -0.00331892 0)
(-0.0199832 -0.00338826 0)
(-0.0188204 -0.00343866 0)
(-0.017643 -0.00346949 0)
(-0.0164575 -0.00348028 0)
(-0.0152707 -0.00347072 0)
(-0.0140891 -0.00344062 0)
(-0.0129196 -0.00339002 0)
(-0.0117687 -0.00331909 0)
(-0.0106431 -0.00322822 0)
(-0.0095493 -0.00311797 0)
(-0.00849339 -0.00298908 0)
(-0.00748136 -0.00284248 0)
(-0.00651879 -0.00267931 0)
(-0.00561084 -0.00250089 0)
(-0.00476221 -0.00230876 0)
(-0.00397706 -0.00210468 0)
(-0.00325889 -0.00189063 0)
(-0.00261052 -0.00166885 0)
(-0.002034 -0.00144186 0)
(-0.00153053 -0.00121249 0)
(-0.00110037 -0.000983934 0)
(-0.000742743 -0.000759833 0)
(-0.00045573 -0.00054433 0)
(-0.000236143 -0.000342196 0)
(-7.94279e-05 -0.000158953 0)
(2.04656e-05 -1.03157e-06 0)
(7.12217e-05 0.000124072 0)
(8.22072e-05 0.000207635 0)
(6.46144e-05 0.000239622 0)
(3.33083e-05 0.000208587 0)
(8.21953e-06 0.000100763 0)
(-4.86497e-06 -3.19478e-06 0)
(-4.35196e-05 4.71299e-05 0)
(-0.000145363 0.000162226 0)
(-0.000311404 0.000352778 0)
(-0.000545543 0.000596622 0)
(-0.000852385 0.000872687 0)
(-0.00123454 0.00116499 0)
(-0.001693 0.00146209 0)
(-0.0022273 0.00175564 0)
(-0.00283583 0.0020396 0)
(-0.00351589 0.00230981 0)
(-0.00426395 0.00256334 0)
(-0.00507587 0.00279838 0)
(-0.00594712 0.00301379 0)
(-0.0068728 0.00320902 0)
(-0.00784786 0.00338396 0)
(-0.00886713 0.00353876 0)
(-0.00992544 0.0036738 0)
(-0.0110177 0.00378961 0)
(-0.0121388 0.00388679 0)
(-0.0132838 0.00396595 0)
(-0.0144478 0.00402778 0)
(-0.0156262 0.00407291 0)
(-0.0168143 0.00410192 0)
(-0.0180077 0.00411538 0)
(-0.0192019 0.00411381 0)
(-0.0203928 0.00409762 0)
(-0.0215761 0.00406717 0)
(-0.0227479 0.00402279 0)
(-0.0239039 0.00396476 0)
(-0.0250404 0.00389327 0)
(-0.0261535 0.00380847 0)
(-0.0272392 0.00371051 0)
(-0.0282938 0.00359949 0)
(-0.0293135 0.00347548 0)
(-0.0302945 0.00333857 0)
(-0.0312333 0.00318886 0)
(-0.0321261 0.00302646 0)
(-0.0329694 0.0028515 0)
(-0.0337595 0.00266415 0)
(-0.0344932 0.00246463 0)
(-0.035167 0.00225325 0)
(-0.0357776 0.00203035 0)
(-0.0363219 0.00179638 0)
(-0.036797 0.00155184 0)
(-0.0372 0.00129733 0)
(-0.0375284 0.00103357 0)
(-0.0377797 0.000761376 0)
(-0.0379519 0.000481645 0)
(-0.0380431 0.000195388 0)
(-0.0380517 -9.62782e-05 0)
(-0.0379765 -0.000392127 0)
(-0.0378166 -0.000690836 0)
(-0.0375716 -0.000990997 0)
(-0.0372414 -0.00129111 0)
(-0.0368264 -0.00158958 0)
(-0.0363272 -0.00188477 0)
(-0.0357453 -0.00217494 0)
(-0.0350823 -0.00245834 0)
(-0.0343404 -0.00273318 0)
(-0.0335223 -0.00299765 0)
(-0.0326313 -0.00324993 0)
(-0.0316709 -0.00348823 0)
(-0.0306454 -0.00371076 0)
(-0.0295594 -0.00391583 0)
(-0.0284178 -0.00410179 0)
(-0.0272263 -0.00426709 0)
(-0.0259906 -0.0044103 0)
(-0.0247172 -0.0045301 0)
(-0.0234125 -0.00462532 0)
(-0.0220834 -0.00469496 0)
(-0.020737 -0.0047382 0)
(-0.0193807 -0.0047544 0)
(-0.018022 -0.00474314 0)
(-0.0166682 -0.00470421 0)
(-0.0153271 -0.00463763 0)
(-0.014006 -0.00454367 0)
(-0.0127125 -0.00442284 0)
(-0.0114536 -0.00427589 0)
(-0.0102365 -0.00410383 0)
(-0.00906777 -0.00390794 0)
(-0.00795366 -0.00368975 0)
(-0.0069 -0.00345107 0)
(-0.00591208 -0.00319398 0)
(-0.00499455 -0.00292086 0)
(-0.00415139 -0.0026344 0)
(-0.00338577 -0.00233761 0)
(-0.00270005 -0.00203385 0)
(-0.00209563 -0.00172691 0)
(-0.00157292 -0.00142104 0)
(-0.00113117 -0.00112098 0)
(-0.00076845 -0.000832127 0)
(-0.000481505 -0.000560588 0)
(-0.000265676 -0.000313339 0)
(-0.000114797 -9.83806e-05 0)
(-2.10746e-05 7.50902e-05 0)
(2.49589e-05 0.000196483 0)
(3.45904e-05 0.000253666 0)
(2.22537e-05 0.000232708 0)
(6.34358e-06 0.000116495 0)
(-7.62384e-06 2.24162e-05 0)
(-6.28086e-05 0.000134069 0)
(-0.000199797 0.000317122 0)
(-0.000415934 0.000580105 0)
(-0.000711998 0.000900302 0)
(-0.00109113 0.00125508 0)
(-0.00155461 0.00162741 0)
(-0.00210229 0.00200445 0)
(-0.00273301 0.00237653 0)
(-0.00344449 0.00273663 0)
(-0.00423352 0.00307965 0)
(-0.00509617 0.00340201 0)
(-0.00602795 0.00370133 0)
(-0.00702393 0.0039761 0)
(-0.00807879 0.00422556 0)
(-0.00918712 0.00444938 0)
(-0.0103434 0.00464773 0)
(-0.011542 0.00482091 0)
(-0.0127773 0.00496953 0)
(-0.0140439 0.00509427 0)
(-0.0153363 0.00519588 0)
(-0.0166492 0.00527509 0)
(-0.0179774 0.00533269 0)
(-0.0193159 0.00536939 0)
(-0.0206597 0.00538587 0)
(-0.022004 0.00538275 0)
(-0.0233439 0.00536053 0)
(-0.024675 0.00531971 0)
(-0.0259925 0.00526068 0)
(-0.0272921 0.00518374 0)
(-0.0285693 0.00508917 0)
(-0.0298198 0.00497721 0)
(-0.0310391 0.00484802 0)
(-0.0322232 0.00470173 0)
(-0.0333678 0.00453849 0)
(-0.0344687 0.00435842 0)
(-0.0355218 0.00416165 0)
(-0.036523 0.00394836 0)
(-0.0374684 0.00371875 0)
(-0.0383539 0.00347304 0)
(-0.0391758 0.00321157 0)
(-0.0399304 0.00293475 0)
(-0.0406139 0.00264304 0)
(-0.0412231 0.00233704 0)
(-0.0417546 0.00201742 0)
(-0.0422053 0.001685 0)
(-0.0425723 0.00134072 0)
(-0.0428531 0.000985616 0)
(-0.0430453 0.000620893 0)
(-0.0431469 0.000247868 0)
(-0.0431562 -0.000132007 0)
(-0.0430719 -0.000517147 0)
(-0.0428931 -0.000905838 0)
(-0.0426193 -0.00129626 0)
(-0.0422504 -0.00168646 0)
(-0.0417868 -0.00207441 0)
(-0.0412295 -0.00245798 0)
(-0.0405798 -0.00283495 0)
(-0.0398397 -0.00320306 0)
(-0.0390116 -0.00356001 0)
(-0.0380986 -0.00390349 0)
(-0.0371041 -0.00423115 0)
(-0.0360322 -0.0045407 0)
(-0.0348875 -0.00482987 0)
(-0.033675 -0.00509647 0)
(-0.0324005 -0.00533841 0)
(-0.0310697 -0.0055537 0)
(-0.0296894 -0.0057405 0)
(-0.0282663 -0.00589713 0)
(-0.0268077 -0.00602209 0)
(-0.0253212 -0.00611411 0)
(-0.0238146 -0.00617214 0)
(-0.0222959 -0.00619537 0)
(-0.0207733 -0.00618325 0)
(-0.0192552 -0.00613552 0)
(-0.0177497 -0.00605223 0)
(-0.0162653 -0.00593371 0)
(-0.0148099 -0.00578062 0)
(-0.0133917 -0.00559394 0)
(-0.0120182 -0.00537498 0)
(-0.0106969 -0.00512536 0)
(-0.00943454 -0.00484708 0)
(-0.00823768 -0.00454247 0)
(-0.00711212 -0.00421423 0)
(-0.00606302 -0.0038654 0)
(-0.00509479 -0.00349944 0)
(-0.004211 -0.0031202 0)
(-0.00341431 -0.00273199 0)
(-0.00270639 -0.00233961 0)
(-0.00208784 -0.00194839 0)
(-0.00155805 -0.00156429 0)
(-0.00111517 -0.00119399 0)
(-0.000756015 -0.000844953 0)
(-0.000475966 -0.000525635 0)
(-0.000268912 -0.000245593 0)
(-0.000127149 -1.56859e-05 0)
(-4.13248e-05 0.000151704 0)
(-3.20396e-07 0.00024248 0)
(9.45141e-06 0.0002405 0)
(4.21653e-06 0.000125954 0)
(-1.05581e-05 5.80766e-05 0)
(-8.28564e-05 0.000248862 0)
(-0.000256147 0.000515259 0)
(-0.000523337 0.000864197 0)
(-0.000882765 0.00127199 0)
(-0.0013358 0.00171533 0)
(-0.00188214 0.00217615 0)
(-0.00252065 0.00264052 0)
(-0.00324915 0.00309784 0)
(-0.00406459 0.00354013 0)
(-0.00496322 0.00396153 0)
(-0.0059406 0.00435784 0)
(-0.00699177 0.00472614 0)
(-0.00811138 0.00506464 0)
(-0.00929381 0.00537227 0)
(-0.0105332 0.00564858 0)
(-0.0118236 0.00589362 0)
(-0.0131591 0.00610775 0)
(-0.0145337 0.00629156 0)
(-0.0159415 0.0064458 0)
(-0.0173767 0.00657132 0)
(-0.0188335 0.00666899 0)
(-0.0203064 0.00673969 0)
(-0.0217898 0.00678426 0)
(-0.0232783 0.00680346 0)
(-0.0247667 0.00679804 0)
(-0.0262498 0.00676863 0)
(-0.0277225 0.00671576 0)
(-0.0291798 0.00663995 0)
(-0.0306169 0.00654157 0)
(-0.0320288 0.00642095 0)
(-0.0334108 0.00627836 0)
(-0.0347581 0.00611405 0)
(-0.0360662 0.0059282 0)
(-0.0373302 0.00572098 0)
(-0.0385457 0.00549258 0)
(-0.0397082 0.00524319 0)
(-0.0408132 0.00497305 0)
(-0.0418563 0.00468241 0)
(-0.0428333 0.00437163 0)
(-0.0437399 0.00404112 0)
(-0.044572 0.00369142 0)
(-0.0453258 0.00332315 0)
(-0.0459975 0.00293706 0)
(-0.0465835 0.00253402 0)
(-0.0470805 0.00211509 0)
(-0.0474853 0.00168143 0)
(-0.0477952 0.0012344 0)
(-0.0480076 0.000775468 0)
(-0.0481204 0.000306311 0)
(-0.0481317 -0.000171247 0)
(-0.0480402 -0.000655219 0)
(-0.0478448 -0.00114347 0)
(-0.0475451 -0.00163374 0)
(-0.0471409 -0.00212359 0)
(-0.0466328 -0.00261048 0)
(-0.0460218 -0.00309177 0)
(-0.0453093 -0.00356471 0)
(-0.0444975 -0.00402651 0)
(-0.0435891 -0.0044743 0)
(-0.0425873 -0.00490521 0)
(-0.0414959 -0.00531634 0)
(-0.0403193 -0.00570485 0)
(-0.0390625 -0.00606794 0)
(-0.037731 -0.00640289 0)
(-0.0363308 -0.00670713 0)
(-0.0348684 -0.00697817 0)
(-0.0333509 -0.00721376 0)
(-0.0317858 -0.0074118 0)
(-0.0301808 -0.00757045 0)
(-0.0285442 -0.00768814 0)
(-0.0268844 -0.00776356 0)
(-0.0252101 -0.0077957 0)
(-0.0235303 -0.00778391 0)
(-0.0218539 -0.00772785 0)
(-0.0201898 -0.00762757 0)
(-0.0185472 -0.0074835 0)
(-0.0169347 -0.00729645 0)
(-0.0153612 -0.00706764 0)
(-0.0138348 -0.00679869 0)
(-0.0123637 -0.00649163 0)
(-0.0109554 -0.00614893 0)
(-0.00961682 -0.0057735 0)
(-0.0083544 -0.00536867 0)
(-0.0071738 -0.00493823 0)
(-0.00607988 -0.00448645 0)
(-0.00507662 -0.00401809 0)
(-0.00416705 -0.00353844 0)
(-0.00335313 -0.00305338 0)
(-0.00263571 -0.00256938 0)
(-0.00201442 -0.00209365 0)
(-0.00148759 -0.00163415 0)
(-0.00105219 -0.00119977 0)
(-0.000703795 -0.000800415 0)
(-0.000436477 -0.000447169 0)
(-0.000242782 -0.000152496 0)
(-0.000113652 6.95361e-05 0)
(-3.83349e-05 0.000203048 0)
(-4.36169e-06 0.000230005 0)
(1.97923e-06 0.000128499 0)
(-1.36222e-05 0.000104157 0)
(-0.000103328 0.000391903 0)
(-0.000313208 0.000757534 0)
(-0.000632077 0.00120585 0)
(-0.00105552 0.00171273 0)
(-0.00158314 0.00225452 0)
(-0.00221332 0.00281232 0)
(-0.00294349 0.00337143 0)
(-0.00377052 0.00392048 0)
(-0.00469051 0.00445074 0)
(-0.005699 0.00495569 0)
(-0.00679099 0.00543059 0)
(-0.00796103 0.00587214 0)
(-0.00920332 0.00627817 0)
(-0.0105118 0.00664737 0)
(-0.0118803 0.00697924 0)
(-0.0133025 0.00727367 0)
(-0.0147721 0.00753104 0)
(-0.0162828 0.00775197 0)
(-0.0178282 0.00793728 0)
(-0.0194021 0.00808789 0)
(-0.0209986 0.00820478 0)
(-0.0226115 0.00828893 0)
(-0.024235 0.00834132 0)
(-0.0258633 0.00836282 0)
(-0.0274908 0.00835423 0)
(-0.0291119 0.00831634 0)
(-0.0307211 0.00824977 0)
(-0.032313 0.00815506 0)
(-0.0338824 0.00803271 0)
(-0.0354239 0.0078831 0)
(-0.0369324 0.00770658 0)
(-0.0384028 0.0075034 0)
(-0.0398301 0.00727384 0)
(-0.0412091 0.00701811 0)
(-0.042535 0.00673647 0)
(-0.0438029 0.00642916 0)
(-0.0450079 0.00609649 0)
(-0.0461453 0.00573881 0)
(-0.0472106 0.00535657 0)
(-0.0481991 0.00495032 0)
(-0.0491064 0.00452072 0)
(-0.0499285 0.00406855 0)
(-0.0506611 0.00359474 0)
(-0.0513006 0.00310041 0)
(-0.0518432 0.00258684 0)
(-0.0522857 0.00205548 0)
(-0.052625 0.00150796 0)
(-0.0528584 0.000946114 0)
(-0.0529836 0.000371983 0)
(-0.0529987 -0.000212209 0)
(-0.0529021 -0.000804054 0)
(-0.0526928 -0.00140096 0)
(-0.0523703 -0.00200016 0)
(-0.0519345 -0.00259872 0)
(-0.0513859 -0.00319357 0)
(-0.0507256 -0.00378149 0)
(-0.0499551 -0.00435918 0)
(-0.0490768 -0.00492325 0)
(-0.0480935 -0.00547026 0)
(-0.0470087 -0.00599671 0)
(-0.0458264 -0.00649914 0)
(-0.0445513 -0.00697409 0)
(-0.0431887 -0.00741821 0)
(-0.0417446 -0.00782822 0)
(-0.0402253 -0.00820098 0)
(-0.0386378 -0.00853354 0)
(-0.0369896 -0.00882314 0)
(-0.0352887 -0.00906727 0)
(-0.0335435 -0.00926372 0)
(-0.0317628 -0.00941056 0)
(-0.0299556 -0.00950622 0)
(-0.0281312 -0.00954949 0)
(-0.0262992 -0.00953955 0)
(-0.0244692 -0.00947601 0)
(-0.0226509 -0.00935893 0)
(-0.0208539 -0.00918882 0)
(-0.0190877 -0.00896664 0)
(-0.0173616 -0.00869386 0)
(-0.0156847 -0.00837243 0)
(-0.0140655 -0.00800482 0)
(-0.0125123 -0.00759401 0)
(-0.0110325 -0.00714348 0)
(-0.00963323 -0.00665728 0)
(-0.00832054 -0.00613995 0)
(-0.00709981 -0.00559663 0)
(-0.00597546 -0.00503302 0)
(-0.0049509 -0.00445547 0)
(-0.00402848 -0.00387093 0)
(-0.00320935 -0.0032871 0)
(-0.00249344 -0.00271242 0)
(-0.00187934 -0.00215621 0)
(-0.00136432 -0.00162872 0)
(-0.000944218 -0.00114132 0)
(-0.000613416 -0.000706588 0)
(-0.000364834 -0.000338505 0)
(-0.000189844 -5.27077e-05 0)
(-7.81948e-05 0.000133338 0)
(-1.86928e-05 0.000200011 0)
(-2.8119e-07 0.000123799 0)
(-1.67644e-05 0.000160661 0)
(-0.0001238 0.000563543 0)
(-0.000370321 0.00104413 0)
(-0.000740917 0.0016053 0)
(-0.00122847 0.00222305 0)
(-0.00183093 0.00287317 0)
(-0.00254517 0.0035365 0)
(-0.00336735 0.00419771 0)
(-0.00429316 0.00484485 0)
(-0.00531782 0.00546863 0)
(-0.00643612 0.00606204 0)
(-0.00764241 0.00661988 0)
(-0.00893066 0.0071385 0)
(-0.0102947 0.00761547 0)
(-0.0117279 0.00804931 0)
(-0.0132238 0.00843933 0)
(-0.0147757 0.00878544 0)
(-0.0163769 0.00908797 0)
(-0.0180207 0.00934761 0)
(-0.0197005 0.0095652 0)
(-0.0214099 0.00974175 0)
(-0.0231423 0.00987838 0)
(-0.0248913 0.00997615 0)
(-0.0266509 0.0100361 0)
(-0.0284148 0.0100593 0)
(-0.0301771 0.0100466 0)
(-0.0319317 0.00999891 0)
(-0.0336729 0.0099169 0)
(-0.0353951 0.00980124 0)
(-0.0370923 0.00965245 0)
(-0.0387591 0.00947101 0)
(-0.04039 0.00925732 0)
(-0.0419794 0.00901171 0)
(-0.0435219 0.00873447 0)
(-0.0450122 0.00842592 0)
(-0.046445 0.00808636 0)
(-0.047815 0.0077161 0)
(-0.0491172 0.00731552 0)
(-0.0503463 0.00688509 0)
(-0.0514975 0.00642537 0)
(-0.052566 0.00593703 0)
(-0.0535471 0.00542087 0)
(-0.0544362 0.00487787 0)
(-0.055229 0.00430916 0)
(-0.0559215 0.0037161 0)
(-0.0565098 0.0031002 0)
(-0.0569903 0.00246322 0)
(-0.0573599 0.00180713 0)
(-0.0576157 0.00113413 0)
(-0.0577551 0.000446629 0)
(-0.0577761 -0.000252711 0)
(-0.0576771 -0.000961024 0)
(-0.057457 -0.00167523 0)
(-0.0571151 -0.00239205 0)
(-0.0566514 -0.003108 0)
(-0.0560664 -0.00381943 0)
(-0.0553612 -0.00452254 0)
(-0.0545375 -0.00521344 0)
(-0.0535976 -0.0058881 0)
(-0.0525446 -0.00654245 0)
(-0.0513821 -0.00717237 0)
(-0.0501144 -0.00777374 0)
(-0.0487465 -0.00834251 0)