/*--------------------------------*- C++ -*----------------------------------*\
| =========                 |                                                 |
| \\      /  F ield         | OpenFOAM: The Open Source CFD Toolbox           |
|  \\    /   O peration     | Version:  2512                                  |
|   \\  /    A nd           | Website:  www.openfoam.com                      |
|    \\/     M anipulation  |                                                 |
\*---------------------------------------------------------------------------*/
FoamFile
{
    version     2.0;
    format      ascii;
    arch        "LSB;label=32;scalar=64";
    class       volVectorField;
    location    "0.5";
    object      U;
}
// * * * * * * * * * * * * * * * * * * * * * * * * * * * * * * * * * * * * * //

dimensions      [0 1 -1 0 0 0 0];

internalField   nonuniform List<vector> 
10000
(
(3.55379e-06 -3.44834e-06 0)
(1.56163e-05 -7.66382e-06 0)
(3.29701e-05 -8.14478e-06 0)
(4.72829e-05 -6.291e-06 0)
(5.40068e-05 -3.33319e-06 0)
(5.11262e-05 7.46107e-08 0)
(3.78318e-05 3.58248e-06 0)
(1.39621e-05 7.00215e-06 0)
(-2.02335e-05 1.02364e-05 0)
(-6.42567e-05 1.32386e-05 0)
(-0.000117473 1.5988e-05 0)
(-0.000179179 1.8479e-05 0)
(-0.000248635 2.07151e-05 0)
(-0.000325096 2.27061e-05 0)
(-0.00040783 2.44638e-05 0)
(-0.000496126 2.60012e-05 0)
(-0.000589304 2.73321e-05 0)
(-0.000686716 2.847e-05 0)
(-0.000787751 2.94296e-05 0)
(-0.000891833 3.02235e-05 0)
(-0.00099842 3.08634e-05 0)
(-0.001107 3.13596e-05 0)
(-0.0012171 3.17222e-05 0)
(-0.00132825 3.19596e-05 0)
(-0.00144004 3.20792e-05 0)
(-0.00155205 3.20872e-05 0)
(-0.00166389 3.19884e-05 0)
(-0.00177518 3.17862e-05 0)
(-0.00188556 3.14836e-05 0)
(-0.00199466 3.10828e-05 0)
(-0.00210215 3.05853e-05 0)
(-0.00220765 2.99913e-05 0)
(-0.00231084 2.93003e-05 0)
(-0.00241136 2.85117e-05 0)
(-0.00250887 2.76248e-05 0)
(-0.00260301 2.66388e-05 0)
(-0.00269344 2.55526e-05 0)
(-0.00277981 2.4365e-05 0)
(-0.00286176 2.30748e-05 0)
(-0.00293894 2.16815e-05 0)
(-0.00301099 2.01848e-05 0)
(-0.00307756 1.85854e-05 0)
(-0.00313832 1.68843e-05 0)
(-0.00319292 1.50831e-05 0)
(-0.00324102 1.31844e-05 0)
(-0.00328233 1.11915e-05 0)
(-0.00331652 9.10884e-06 0)
(-0.00334332 6.94218e-06 0)
(-0.00336247 4.698e-06 0)
(-0.00337373 2.38387e-06 0)
(-0.00337689 8.90571e-09 0)
(-0.00337178 -2.41705e-06 0)
(-0.00335826 -4.88312e-06 0)
(-0.00333623 -7.37683e-06 0)
(-0.00330565 -9.88495e-06 0)
(-0.00326649 -1.23936e-05 0)
(-0.00321879 -1.48875e-05 0)
(-0.00316266 -1.73507e-05 0)
(-0.00309823 -1.97671e-05 0)
(-0.00302571 -2.21196e-05 0)
(-0.00294535 -2.43905e-05 0)
(-0.00285747 -2.65623e-05 0)
(-0.00276243 -2.86178e-05 0)
(-0.00266067 -3.05394e-05 0)
(-0.00255268 -3.231e-05 0)
(-0.00243899 -3.39137e-05 0)
(-0.00232019 -3.53349e-05 0)
(-0.00219692 -3.65585e-05 0)
(-0.00206987 -3.75713e-05 0)
(-0.00193977 -3.83616e-05 0)
(-0.00180736 -3.89189e-05 0)
(-0.00167346 -3.92343e-05 0)
(-0.00153887 -3.9301e-05 0)
(-0.00140443 -3.91144e-05 0)
(-0.00127098 -3.86716e-05 0)
(-0.00113938 -3.79717e-05 0)
(-0.00101048 -3.70166e-05 0)
(-0.000885109 -3.58104e-05 0)
(-0.000764093 -3.43587e-05 0)
(-0.000648229 -3.26696e-05 0)
(-0.000538278 -3.07535e-05 0)
(-0.000434966 -2.86231e-05 0)
(-0.000338969 -2.6293e-05 0)
(-0.000250909 -2.37797e-05 0)
(-0.000171344 -2.11019e-05 0)
(-0.000100763 -1.82809e-05 0)
(-3.95741e-05 -1.53402e-05 0)
(1.19022e-05 -1.23062e-05 0)
(5.34497e-05 -9.20887e-06 0)
(8.49687e-05 -6.08371e-06 0)
(0.000106496 -2.9737e-06 0)
(0.000118232 6.68754e-08 0)
(0.000120587 2.96651e-06 0)
(0.000114233 5.62409e-06 0)
(0.000100201 7.88887e-06 0)
(8.00184e-05 9.53061e-06 0)
(5.5885e-05 1.0197e-05 0)
(3.09862e-05 9.33672e-06 0)
(1.03858e-05 6.19961e-06 0)
(9.76269e-07 9.81841e-07 0)
(7.85728e-06 -1.56637e-05 0)
(2.9589e-05 -2.93408e-05 0)
(5.52319e-05 -2.80613e-05 0)
(7.0659e-05 -1.71148e-05 0)
(6.70991e-05 -7.19645e-07 0)
(3.99533e-05 1.84379e-05 0)
(-1.31998e-05 3.86603e-05 0)
(-9.32607e-05 5.88911e-05 0)
(-0.000200063 7.84846e-05 0)
(-0.000332732 9.70536e-05 0)
(-0.000489934 0.00011437 0)
(-0.000670057 0.000130313 0)
(-0.000871325 0.000144832 0)
(-0.00109188 0.000157923 0)
(-0.00132985 0.000169612 0)
(-0.00158337 0.000179944 0)
(-0.00185063 0.000188975 0)
(-0.00212989 0.000196768 0)
(-0.00241946 0.000203392 0)
(-0.00271775 0.00020891 0)
(-0.00302323 0.000213388 0)
(-0.00333447 0.000216884 0)
(-0.00365009 0.000219452 0)
(-0.00396879 0.000221143 0)
(-0.00428932 0.000221998 0)
(-0.00461049 0.000222055 0)
(-0.00493115 0.000221344 0)
(-0.0052502 0.00021989 0)
(-0.00556657 0.000217713 0)
(-0.00587918 0.000214826 0)
(-0.00618701 0.000211241 0)
(-0.00648904 0.000206961 0)
(-0.00678425 0.000201991 0)
(-0.00707163 0.000196331 0)
(-0.00735018 0.000189978 0)
(-0.00761887 0.00018293 0)
(-0.00787671 0.000175186 0)
(-0.00812268 0.000166741 0)
(-0.00835579 0.000157597 0)
(-0.00857501 0.000147753 0)
(-0.00877937 0.000137215 0)
(-0.00896788 0.000125989 0)
(-0.00913957 0.000114089 0)
(-0.00929349 0.00010153 0)
(-0.00942875 8.83336e-05 0)
(-0.00954447 7.45287e-05 0)
(-0.00963981 6.01484e-05 0)
(-0.00971402 4.52336e-05 0)
(-0.00976639 2.98316e-05 0)
(-0.00979629 1.39963e-05 0)
(-0.00980316 -2.21057e-06 0)
(-0.00978657 -1.87205e-05 0)
(-0.00974615 -3.54589e-05 0)
(-0.00968167 -5.23438e-05 0)
(-0.00959301 -6.92868e-05 0)
(-0.00948019 -8.61945e-05 0)
(-0.00934334 -0.000102968 0)
(-0.00918277 -0.000119502 0)
(-0.0089989 -0.000135691 0)
(-0.00879233 -0.000151425 0)
(-0.0085638 -0.00016659 0)
(-0.00831421 -0.000181075 0)
(-0.00804462 -0.000194766 0)
(-0.00775624 -0.000207554 0)
(-0.00745045 -0.000219329 0)
(-0.00712874 -0.000229988 0)
(-0.00679277 -0.000239433 0)
(-0.00644432 -0.000247572 0)
(-0.0060853 -0.00025432 0)
(-0.00571772 -0.000259601 0)
(-0.00534368 -0.000263352 0)
(-0.00496538 -0.000265519 0)
(-0.00458507 -0.000266059 0)
(-0.00420506 -0.000264943 0)
(-0.00382767 -0.000262156 0)
(-0.00345526 -0.000257697 0)
(-0.00309015 -0.000251578 0)
(-0.00273465 -0.000243827 0)
(-0.00239101 -0.000234485 0)
(-0.00206141 -0.00022361 0)
(-0.00174793 -0.000211273 0)
(-0.00145256 -0.000197561 0)
(-0.00117714 -0.000182577 0)
(-0.000923326 -0.000166435 0)
(-0.000692636 -0.000149271 0)
(-0.000486358 -0.000131233 0)
(-0.000305552 -0.000112491 0)
(-0.000151018 -9.32371e-05 0)
(-2.32531e-05 -7.36899e-05 0)
(7.75851e-05 -5.41051e-05 0)
(0.000151737 -3.4785e-05 0)
(0.000199917 -1.61e-05 0)
(0.000223406 1.48665e-06 0)
(0.000224182 1.73726e-05 0)
(0.000205098 3.07527e-05 0)
(0.000170113 4.05346e-05 0)
(0.000124476 4.5246e-05 0)
(7.49715e-05 4.29293e-05 0)
(3.12601e-05 3.13224e-05 0)
(6.1565e-06 1.03599e-05 0)
(8.32401e-06 -3.31812e-05 0)
(2.84711e-05 -5.51558e-05 0)
(4.60891e-05 -4.55809e-05 0)
(4.48421e-05 -1.52753e-05 0)
(1.43817e-05 2.78388e-05 0)
(-5.12422e-05 7.80969e-05 0)
(-0.000155442 0.000131589 0)
(-0.000299699 0.00018568 0)
(-0.000484035 0.000238618 0)
(-0.000707434 0.000289266 0)
(-0.000968164 0.000336903 0)
(-0.00126402 0.000381097 0)
(-0.00159249 0.000421618 0)
(-0.00195088 0.000458374 0)
(-0.00233644 0.000491372 0)
(-0.00274638 0.000520683 0)
(-0.00317796 0.000546418 0)
(-0.0036285 0.000568718 0)
(-0.0040954 0.000587737 0)
(-0.00457617 0.000603635 0)
(-0.00506841 0.000616567 0)
(-0.00556985 0.000626685 0)
(-0.00607829 0.000634131 0)
(-0.00659164 0.00063903 0)
(-0.0071079 0.000641497 0)
(-0.00762513 0.000641631 0)
(-0.00814148 0.000639514 0)
(-0.00865513 0.000635216 0)
(-0.00916433 0.000628792 0)
(-0.00966737 0.000620283 0)
(-0.0101625 0.00060972 0)
(-0.0106482 0.000597122 0)
(-0.0111226 0.000582503 0)
(-0.0115843 0.000565867 0)
(-0.0120315 0.000547216 0)
(-0.0124625 0.000526551 0)
(-0.0128759 0.000503868 0)
(-0.0132699 0.000479171 0)
(-0.013643 0.000452462 0)
(-0.0139935 0.000423755 0)
(-0.0143199 0.000393068 0)
(-0.0146207 0.000360429 0)
(-0.0148942 0.000325881 0)
(-0.015139 0.000289477 0)
(-0.0153537 0.000251285 0)
(-0.0155369 0.000211392 0)
(-0.0156873 0.000169899 0)
(-0.0158038 0.000126926 0)
(-0.0158853 8.26116e-05 0)
(-0.0159308 3.71145e-05 0)
(-0.0159395 -9.38865e-06 0)
(-0.0159107 -5.67012e-05 0)
(-0.0158439 -0.000104608 0)
(-0.0157388 -0.000152877 0)
(-0.0155951 -0.000201259 0)
(-0.0154131 -0.000249487 0)
(-0.0151929 -0.000297283 0)
(-0.014935 -0.000344357 0)
(-0.0146402 -0.000390406 0)
(-0.0143095 -0.000435123 0)
(-0.0139439 -0.000478196 0)
(-0.0135451 -0.00051931 0)
(-0.0131146 -0.000558152 0)
(-0.0126545 -0.000594416 0)
(-0.0121667 -0.000627802 0)
(-0.0116539 -0.000658022 0)
(-0.0111184 -0.000684803 0)
(-0.0105633 -0.000707894 0)
(-0.00999135 -0.000727061 0)
(-0.00940581 -0.000742098 0)
(-0.00880998 -0.000752827 0)
(-0.00820728 -0.000759101 0)
(-0.00760124 -0.000760806 0)
(-0.00699544 -0.000757866 0)
(-0.00639354 -0.000750239 0)
(-0.00579919 -0.000737924 0)
(-0.00521602 -0.000720961 0)
(-0.00464763 -0.00069943 0)
(-0.00409751 -0.000673453 0)
(-0.00356907 -0.000643196 0)
(-0.00306553 -0.000608864 0)
(-0.00258996 -0.000570709 0)
(-0.0021452 -0.000529023 0)
(-0.00173384 -0.000484146 0)
(-0.00135818 -0.000436465 0)
(-0.00102017 -0.000386415 0)
(-0.000721415 -0.000334491 0)
(-0.000463087 -0.000281252 0)
(-0.000245878 -0.000227337 0)
(-6.99389e-05 -0.000173484 0)
(6.51996e-05 -0.000120558 0)
(0.000160732 -6.95949e-05 0)
(0.000218698 -2.18555e-05 0)
(0.000242137 2.10912e-05 0)
(0.000235278 5.72646e-05 0)
(0.000203762 8.41553e-05 0)
(0.000154748 9.8628e-05 0)
(9.70366e-05 9.69123e-05 0)
(4.28673e-05 7.5003e-05 0)
(9.25976e-06 3.08616e-05 0)
(6.51337e-06 -4.78575e-05 0)
(1.76775e-05 -7.09064e-05 0)
(1.59746e-05 -4.44415e-05 0)
(-1.43686e-05 1.49606e-05 0)
(-8.3854e-05 9.54902e-05 0)
(-0.000198909 0.000188369 0)
(-0.000363336 0.000287233 0)
(-0.000578868 0.000387583 0)
(-0.000845603 0.00048629 0)
(-0.00116242 0.000581222 0)
(-0.00152731 0.000670962 0)
(-0.00193765 0.000754611 0)
(-0.00239037 0.000831643 0)
(-0.00288216 0.0009018 0)
(-0.00340956 0.000965013 0)
(-0.00396905 0.00102134 0)
(-0.00455711 0.00107095 0)
(-0.00517028 0.00111406 0)
(-0.00580518 0.0011509 0)
(-0.00645854 0.00118176 0)
(-0.00712719 0.0012069 0)
(-0.00780809 0.00122658 0)
(-0.00849832 0.00124106 0)
(-0.00919506 0.00125056 0)
(-0.0098956 0.00125529 0)
(-0.0105973 0.00125544 0)
(-0.0112977 0.00125115 0)
(-0.0119943 0.00124255 0)
(-0.0126846 0.00122976 0)
(-0.0133664 0.00121284 0)
(-0.0140373 0.00119187 0)
(-0.0146951 0.00116688 0)
(-0.0153374 0.00113791 0)
(-0.0159621 0.00110497 0)
(-0.0165669 0.00106807 0)
(-0.0171496 0.00102722 0)
(-0.0177081 0.000982428 0)
(-0.01824 0.000933705 0)
(-0.0187432 0.000881069 0)
(-0.0192157 0.000824554 0)
(-0.0196552 0.000764206 0)
(-0.0200597 0.000700092 0)
(-0.0204272 0.000632301 0)
(-0.0207556 0.000560946 0)
(-0.0210432 0.00048617 0)
(-0.0212881 0.000408145 0)
(-0.0214887 0.000327077 0)
(-0.0216434 0.000243206 0)
(-0.0217507 0.000156804 0)
(-0.0218096 6.81822e-05 0)
(-0.0218188 -2.23126e-05 0)
(-0.0217775 -0.000114299 0)
(-0.0216851 -0.000207361 0)
(-0.0215413 -0.000301047 0)
(-0.0213458 -0.000394878 0)
(-0.0210988 -0.000488343 0)
(-0.0208007 -0.000580906 0)
(-0.0204522 -0.000672011 0)
(-0.0200542 -0.000761083 0)
(-0.0196082 -0.000847533 0)
(-0.0191157 -0.000930767 0)
(-0.0185787 -0.00101019 0)
(-0.0179995 -0.0010852 0)
(-0.0173806 -0.00115522 0)
(-0.0167249 -0.00121968 0)
(-0.0160356 -0.00127803 0)
(-0.0153162 -0.00132977 0)
(-0.0145703 -0.00137441 0)
(-0.013802 -0.00141151 0)
(-0.0130153 -0.00144069 0)
(-0.0122147 -0.00146161 0)
(-0.0114048 -0.00147399 0)
(-0.01059 -0.00147763 0)
(-0.00977527 -0.00147237 0)
(-0.00896531 -0.00145815 0)
(-0.00816495 -0.00143497 0)
(-0.00737898 -0.0014029 0)
(-0.00661211 -0.00136211 0)
(-0.00586896 -0.00131283 0)
(-0.00515397 -0.0012554 0)
(-0.00447141 -0.0011902 0)
(-0.00382527 -0.00111773 0)
(-0.00321928 -0.00103856 0)
(-0.00265681 -0.000953346 0)
(-0.00214085 -0.000862851 0)
(-0.00167393 -0.000767924 0)
(-0.00125811 -0.00066953 0)
(-0.000894872 -0.000568758 0)
(-0.000585058 -0.000466845 0)
(-0.000328813 -0.000365214 0)
(-0.000125477 -0.00026551 0)
(2.65277e-05 -0.000169667 0)
(0.000129818 -7.99939e-05 0)
(0.000188202 7.26987e-07 0)
(0.000206854 6.91069e-05 0)
(0.000192505 0.000121021 0)
(0.000153498 0.000151513 0)
(9.98805e-05 0.000154826 0)
(4.55394e-05 0.000124758 0)
(1.01447e-05 5.57038e-05 0)
(3.58651e-06 -5.4953e-05 0)
(1.2624e-06 -6.7655e-05 0)
(-2.75044e-05 -1.39216e-05 0)
(-9.58951e-05 8.45664e-05 0)
(-0.000213414 0.000212371 0)
(-0.000386329 0.000357765 0)
(-0.000618353 0.000511978 0)
(-0.00091113 0.000668604 0)
(-0.00126466 0.000823044 0)
(-0.00167764 0.000972047 0)
(-0.00214781 0.00111338 0)
(-0.0026722 0.00124557 0)
(-0.0032473 0.0013677 0)
(-0.0038693 0.00147927 0)
(-0.00453417 0.00158008 0)
(-0.00523779 0.00167015 0)
(-0.00597601 0.00174966 0)
(-0.00674468 0.00181888 0)
(-0.00753978 0.00187815 0)
(-0.00835734 0.00192785 0)
(-0.00919353 0.00196838 0)
(-0.0100446 0.00200011 0)
(-0.0109071 0.00202342 0)
(-0.0117773 0.00203864 0)
(-0.0126521 0.0020461 0)
(-0.0135281 0.00204607 0)
(-0.0144022 0.00203879 0)
(-0.0152713 0.00202446 0)
(-0.0161325 0.00200323 0)
(-0.0169826 0.00197525 0)
(-0.017819 0.00194062 0)
(-0.0186386 0.00189941 0)
(-0.0194388 0.00185166 0)
(-0.0202166 0.00179743 0)
(-0.0209693 0.00173674 0)
(-0.0216941 0.0016696 0)
(-0.0223883 0.00159605 0)
(-0.0230492 0.00151611 0)
(-0.0236741 0.00142984 0)
(-0.0242603 0.00133729 0)
(-0.0248052 0.00123855 0)
(-0.0253063 0.00113375 0)
(-0.025761 0.00102305 0)
(-0.026167 0.000906633 0)
(-0.026522 0.000784751 0)
(-0.0268239 0.000657691 0)
(-0.0270705 0.000525794 0)
(-0.02726 0.000389454 0)
(-0.0273908 0.000249122 0)
(-0.0274613 0.000105304 0)
(-0.0274703 -4.14361e-05 0)
(-0.0274168 -0.000190481 0)
(-0.0273 -0.000341158 0)
(-0.0271196 -0.000492742 0)
(-0.0268754 -0.00064446 0)
(-0.0265676 -0.000795495 0)
(-0.0261967 -0.00094499 0)
(-0.0257637 -0.00109205 0)
(-0.0252698 -0.00123577 0)
(-0.0247166 -0.0013752 0)
(-0.0241062 -0.00150941 0)
(-0.023441 -0.00163743 0)
(-0.0227238 -0.00175833 0)
(-0.0219578 -0.00187118 0)
(-0.0211464 -0.00197508 0)
(-0.0202936 -0.00206917 0)
(-0.0194037 -0.00215264 0)
(-0.018481 -0.00222472 0)
(-0.0175305 -0.00228473 0)
(-0.0165573 -0.00233205 0)
(-0.0155666 -0.00236616 0)
(-0.014564 -0.00238662 0)
(-0.0135551 -0.0023931 0)
(-0.0125457 -0.00238537 0)
(-0.0115416 -0.00236333 0)
(-0.0105487 -0.00232698 0)
(-0.00957264 -0.00227646 0)
(-0.00861931 -0.00221203 0)
(-0.00769424 -0.00213407 0)
(-0.00680283 -0.00204311 0)
(-0.00595022 -0.0019398 0)
(-0.00514128 -0.00182492 0)
(-0.00438048 -0.00169941 0)
(-0.00367189 -0.00156434 0)
(-0.00301912 -0.00142092 0)
(-0.00242522 -0.00127053 0)
(-0.00189263 -0.00111474 0)
(-0.00142311 -0.000955284 0)
(-0.00101768 -0.000794159 0)
(-0.000676483 -0.000633614 0)
(-0.00039875 -0.000476237 0)
(-0.000182642 -0.000325019 0)
(-2.51479e-05 -0.000183462 0)
(7.80472e-05 -5.56936e-05 0)
(0.000132721 5.3392e-05 0)
(0.000146269 0.00013799 0)
(0.000127749 0.000191269 0)
(8.7992e-05 0.00020537 0)
(4.17446e-05 0.000171544 0)
(9.60519e-06 8.00663e-05 0)
(1.73853e-07 -5.2412e-05 0)
(-1.82366e-05 -4.03963e-05 0)
(-7.91222e-05 5.25926e-05 0)
(-0.000191744 0.000200896 0)
(-0.000363808 0.000385935 0)
(-0.000600911 0.000593323 0)
(-0.000906263 0.000812066 0)
(-0.00128112 0.00103393 0)
(-0.00172518 0.00125286 0)
(-0.00223685 0.00146444 0)
(-0.00281358 0.00166558 0)
(-0.00345203 0.00185416 0)
(-0.00414834 0.00202881 0)
(-0.00489825 0.00218874 0)
(-0.00569726 0.00233357 0)
(-0.00654073 0.00246323 0)
(-0.00742397 0.0025779 0)
(-0.00834229 0.00267788 0)
(-0.00929107 0.00276361 0)
(-0.0102658 0.00283555 0)
(-0.0112619 0.00289423 0)
(-0.0122752 0.00294014 0)
(-0.0133016 0.00297379 0)
(-0.0143368 0.00299564 0)
(-0.015377 0.00300611 0)
(-0.0164183 0.00300559 0)
(-0.0174571 0.0029944 0)
(-0.0184896 0.00297282 0)
(-0.0195123 0.0029411 0)
(-0.0205217 0.00289941 0)
(-0.0215144 0.0028479 0)
(-0.0224869 0.0027867 0)
(-0.0234359 0.00271588 0)
(-0.0243581 0.0026355 0)
(-0.0252502 0.00254563 0)
(-0.0261088 0.0024463 0)
(-0.0269308 0.00233757 0)
(-0.0277129 0.0022195 0)
(-0.028452 0.00209217 0)
(-0.0291449 0.0019557 0)
(-0.0297886 0.00181022 0)
(-0.0303802 0.00165595 0)
(-0.0309166 0.00149312 0)
(-0.0313951 0.00132203 0)
(-0.031813 0.00114305 0)
(-0.0321679 0.00095662 0)
(-0.0324574 0.000763247 0)
(-0.0326793 0.000563515 0)
(-0.0328317 0.000358089 0)
(-0.0329129 0.000147714 0)
(-0.0329215 -6.67887e-05 0)
(-0.0328564 -0.000284515 0)
(-0.0327168 -0.000504487 0)
(-0.0325021 -0.000725652 0)
(-0.0322124 -0.000946892 0)
(-0.0318478 -0.00116702 0)
(-0.0314091 -0.00138481 0)
(-0.0308974 -0.00159896 0)
(-0.0303141 -0.00180817 0)
(-0.0296612 -0.00201109 0)
(-0.0289411 -0.00220635 0)
(-0.0281566 -0.00239259 0)
(-0.0273111 -0.00256846 0)
(-0.0264081 -0.00273264 0)
(-0.0254519 -0.00288384 0)
(-0.024447 -0.00302083 0)
(-0.0233982 -0.00314243 0)
(-0.0223108 -0.00324757 0)
(-0.0211905 -0.00333527 0)
(-0.0200431 -0.00340464 0)
(-0.0188748 -0.00345494 0)
(-0.017692 -0.00348554 0)
(-0.0165013 -0.00349598 0)
(-0.0153092 -0.00348595 0)
(-0.0141225 -0.00345527 0)
(-0.0129481 -0.00340399 0)
(-0.0117926 -0.00333229 0)
(-0.0106627 -0.00324056 0)
(-0.00956474 -0.00312936 0)
(-0.00850506 -0.00299946 0)
(-0.00748958 -0.00285179 0)
(-0.00652392 -0.00268752 0)
(-0.00561325 -0.00250798 0)
(-0.00476228 -0.00231473 0)
(-0.00397516 -0.00210956 0)
(-0.00325541 -0.00189445 0)
(-0.00260585 -0.00167166 0)
(-0.00202853 -0.00144372 0)
(-0.00152461 -0.00121348 0)
(-0.00109434 -0.000984137 0)
(-0.000736898 -0.000759339 0)
(-0.000450305 -0.000543247 0)
(-0.000231335 -0.000340652 0)
(-7.53809e-05 -0.000157099 0)
(2.36689e-05 9.60339e-07 0)
(7.35644e-05 0.000126015 0)
(8.37374e-05 0.000209341 0)
(6.5438e-05 0.000240923 0)
(3.35688e-05 0.000209385 0)
(8.21934e-06 0.000101102 0)
(-3.40979e-06 -3.92026e-05 0)
(-3.92945e-05 1.388e-05 0)
(-0.000135382 0.00015949 0)
(-0.0002963 0.000369084 0)
(-0.000527422 0.000621544 0)
(-0.000833279 0.000900233 0)
(-0.00121625 0.00119219 0)
(-0.00167695 0.00148751 0)
(-0.00221455 0.00177876 0)
(-0.00282706 0.00206042 0)
(-0.00351153 0.00232852 0)
(-0.00426427 0.00258028 0)
(-0.00508104 0.00281386 0)
(-0.00595716 0.00302812 0)
(-0.00688773 0.00322248 0)
(-0.00786764 0.00339677 0)
(-0.00889175 0.00355112 0)
(-0.00995487 0.00368586 0)
(-0.0110519 0.00380149 0)
(-0.0121777 0.00389857 0)
(-0.0133274 0.00397774 0)
(-0.0144961 0.00403961 0)
(-0.0156791 0.00408481 0)
(-0.0168719 0.00411393 0)
(-0.0180699 0.0041275 0)
(-0.0192687 0.00412602 0)
(-0.0204642 0.00410991 0)
(-0.0216521 0.00407954 0)
(-0.0228283 0.00403522 0)
(-0.023989 0.0039772 0)
(-0.02513 0.00390568 0)
(-0.0262474 0.00382081 0)
(-0.0273376 0.00372273 0)
(-0.0283965 0.00361153 0)
(-0.0294205 0.00348729 0)
(-0.0304057 0.0033501 0)
(-0.0313485 0.00320004 0)
(-0.0322452 0.00303722 0)
(-0.0330922 0.00286176 0)
(-0.033886 0.00267385 0)
(-0.034623 0.0024737 0)
(-0.0352998 0.00226161 0)
(-0.0359133 0.00203791 0)
(-0.0364602 0.00180306 0)
(-0.0369375 0.00155755 0)
(-0.0373425 0.00130201 0)
(-0.0376725 0.00103713 0)
(-0.037925 0.000763738 0)
(-0.038098 0.000482735 0)
(-0.0381895 0.000195143 0)
(-0.0381981 -9.79122e-05 0)
(-0.0381224 -0.000395201 0)
(-0.0379616 -0.000695393 0)
(-0.0377153 -0.000997061 0)
(-0.0373833 -0.00129869 0)
(-0.036966 -0.00159868 0)
(-0.0364642 -0.00189536 0)
(-0.0358792 -0.00218701 0)
(-0.0352127 -0.00247185 0)
(-0.0344669 -0.00274806 0)
(-0.0336445 -0.00301382 0)
(-0.0327488 -0.00326729 0)
(-0.0317835 -0.00350668 0)
(-0.0307528 -0.00373019 0)
(-0.0296612 -0.0039361 0)
(-0.0285139 -0.00412277 0)
(-0.0273164 -0.00428863 0)
(-0.0260748 -0.00443223 0)
(-0.0247951 -0.00455226 0)
(-0.0234842 -0.00464754 0)
(-0.0221489 -0.00471707 0)
(-0.0207963 -0.00476003 0)
(-0.0194339 -0.00477578 0)
(-0.0180691 -0.00476391 0)
(-0.0167096 -0.00472422 0)
(-0.0153628 -0.00465675 0)
(-0.0140364 -0.00456175 0)
(-0.0127377 -0.00443976 0)
(-0.0114741 -0.00429155 0)
(-0.0102526 -0.00411813 0)
(-0.00907977 -0.00392081 0)
(-0.00796201 -0.00370113 0)
(-0.00690511 -0.00346093 0)
(-0.00591437 -0.00320232 0)
(-0.00499446 -0.00292769 0)
(-0.00414933 -0.00263976 0)
(-0.0033822 -0.00234155 0)
(-0.00269538 -0.00203646 0)
(-0.00209027 -0.00172829 0)
(-0.00156724 -0.00142129 0)
(-0.0011255 -0.00112024 0)
(-0.000763073 -0.000830557 0)
(-0.000476657 -0.000558371 0)
(-0.000261537 -0.000310688 0)
(-0.000111478 -9.55292e-05 0)
(-1.86193e-05 7.78903e-05 0)
(2.65791e-05 0.000198978 0)
(3.54677e-05 0.000255615 0)
(2.25381e-05 0.000233943 0)
(6.35106e-06 0.000116996 0)
(-7.00472e-06 -1.48793e-05 0)
(-6.10002e-05 9.68742e-05 0)
(-0.000194007 0.000309502 0)
(-0.000405716 0.000592525 0)
(-0.000698847 0.000922906 0)
(-0.00107659 0.00128219 0)
(-0.00154025 0.00165575 0)
(-0.00208954 0.00203225 0)
(-0.00272297 0.002403 0)
(-0.003438 0.00276146 0)
(-0.00423121 0.00310284 0)
(-0.00509847 0.0034237 0)
(-0.00603515 0.00372174 0)
(-0.00703619 0.00399546 0)
(-0.00809625 0.00424408 0)
(-0.00920985 0.00446729 0)
(-0.0103714 0.00466515 0)
(-0.0115753 0.00483804 0)
(-0.012816 0.00498646 0)
(-0.0140879 0.0051111 0)
(-0.0153856 0.00521267 0)
(-0.0167039 0.00529191 0)
(-0.0180374 0.00534958 0)
(-0.0193812 0.00538637 0)
(-0.0207303 0.00540295 0)
(-0.0220799 0.00539991 0)
(-0.0234251 0.00537778 0)
(-0.0247614 0.00533701 0)
(-0.0260842 0.00527799 0)
(-0.027389 0.00520104 0)
(-0.0286714 0.00510642 0)
(-0.029927 0.00499433 0)
(-0.0311515 0.00486495 0)
(-0.0323406 0.00471841 0)
(-0.0334901 0.00455484 0)
(-0.0345958 0.00437436 0)
(-0.0356535 0.00417711 0)
(-0.0366592 0.00396323 0)
(-0.0376088 0.00373293 0)
(-0.0384984 0.00348645 0)
(-0.0393242 0.00322411 0)
(-0.0400823 0.0029463 0)
(-0.0407691 0.00265351 0)
(-0.0413812 0.0023463 0)
(-0.0419153 0.00202538 0)
(-0.0423682 0.00169156 0)
(-0.042737 0.00134576 0)
(-0.0430192 0.000989054 0)
(-0.0432123 0.000622635 0)
(-0.0433144 0.000247833 0)
(-0.0433237 -0.000133887 0)
(-0.043239 -0.00052093 0)
(-0.0430592 -0.000911572 0)
(-0.0427839 -0.00130397 0)
(-0.042413 -0.00169616 0)
(-0.0419469 -0.0020861 0)
(-0.0413867 -0.00247162 0)
(-0.0407335 -0.00285051 0)
(-0.0399895 -0.00322049 0)
(-0.0391571 -0.00357922 0)
(-0.0382393 -0.00392437 0)
(-0.0372397 -0.00425359 0)
(-0.0361623 -0.00456456 0)
(-0.0350117 -0.004855 0)
(-0.0337931 -0.00512271 0)
(-0.0325121 -0.00536557 0)
(-0.0311748 -0.00558159 0)
(-0.0297877 -0.00576891 0)
(-0.0283577 -0.00592586 0)
(-0.0268921 -0.00605092 0)
(-0.0253986 -0.00614283 0)
(-0.023885 -0.00620052 0)
(-0.0223594 -0.0062232 0)
(-0.0208301 -0.00621033 0)
(-0.0193054 -0.00616165 0)
(-0.0177935 -0.00607722 0)
(-0.016303 -0.00595739 0)
(-0.0148419 -0.00580283 0)
(-0.0134182 -0.00561453 0)
(-0.0120396 -0.00539383 0)
(-0.0107136 -0.00514238 0)
(-0.00944704 -0.00486219 0)
(-0.0082464 -0.00455563 0)
(-0.00711751 -0.00422541 0)
(-0.00606555 -0.00387461 0)
(-0.00509493 -0.00350672 0)
(-0.00420923 -0.00312562 0)
(-0.00341111 -0.00273565 0)
(-0.00270219 -0.00234162 0)
(-0.00208305 -0.00194891 0)
(-0.00155304 -0.00156349 0)
(-0.00111026 -0.00119207 0)
(-0.000751485 -0.000842171 0)
(-0.000472029 -0.000522259 0)
(-0.000265711 -0.000241922 0)
(-0.000124754 -1.20423e-05 0)
(-3.97345e-05 0.000154991 0)
(5.40187e-07 0.000245091 0)
(9.73245e-06 0.000242182 0)
(4.2297e-06 0.000126616 0)
(-1.05338e-05 2.06659e-05 0)
(-8.28153e-05 0.00020938 0)
(-0.000253537 0.000504133 0)
(-0.00051739 0.000873274 0)
(-0.00087429 0.0012924 0)
(-0.00132591 0.00174167 0)
(-0.00187227 0.00220514 0)
(-0.00251205 0.00267025 0)
(-0.00324292 0.00312725 0)
(-0.00406166 0.00356869 0)
(-0.0049643 0.00398904 0)
(-0.00594623 0.00438427 0)
(-0.00700236 0.00475161 0)
(-0.00812722 0.00508926 0)
(-0.00931509 0.00539619 0)
(-0.0105601 0.00567196 0)
(-0.0118562 0.0059166 0)
(-0.0131975 0.00613045 0)
(-0.014578 0.00631409 0)
(-0.0159917 0.00646825 0)
(-0.0174327 0.00659375 0)
(-0.0188955 0.00669146 0)
(-0.0203743 0.00676222 0)
(-0.0218636 0.00680687 0)
(-0.0233581 0.00682618 0)
(-0.0248525 0.00682085 0)
(-0.0263415 0.0067915 0)
(-0.0278202 0.00673868 0)
(-0.0292834 0.00666285 0)
(-0.0307264 0.00656442 0)
(-0.0321441 0.00644368 0)
(-0.0335319 0.00630092 0)
(-0.034885 0.00613634 0)
(-0.0361986 0.00595014 0)
(-0.0374682 0.00574248 0)
(-0.0386891 0.00551353 0)
(-0.0398568 0.00526349 0)
(-0.0409668 0.00499257 0)
(-0.0420148 0.00470104 0)
(-0.0429963 0.00438924 0)
(-0.0439071 0.00405758 0)
(-0.0447433 0.00370659 0)
(-0.0455007 0.0033369 0)
(-0.0461757 0.00294925 0)
(-0.0467646 0.00254453 0)
(-0.0472641 0.00212378 0)
(-0.0476709 0.00168817 0)
(-0.0479824 0.00123907 0)
(-0.0481959 0.000777972 0)
(-0.0483092 0.000306551 0)
(-0.0483206 -0.000173355 0)
(-0.0482286 -0.00065975 0)
(-0.0480322 -0.00115048 0)
(-0.0477308 -0.00164324 0)
(-0.0473245 -0.0021356 0)
(-0.0468138 -0.002625 0)
(-0.0461995 -0.00310876 0)
(-0.0454833 -0.00358412 0)
(-0.0446673 -0.00404825 0)
(-0.0437541 -0.00449828 0)
(-0.0427471 -0.00493129 0)
(-0.04165 -0.00534438 0)
(-0.0404674 -0.00573468 0)
(-0.0392042 -0.00609937 0)
(-0.0378659 -0.00643572 0)
(-0.0364586 -0.00674112 0)
(-0.034989 -0.0070131 0)
(-0.0334641 -0.00724936 0)
(-0.0318913 -0.00744782 0)
(-0.0302787 -0.00760664 0)
(-0.0286343 -0.00772421 0)
(-0.0269668 -0.00779924 0)
(-0.0252849 -0.00783074 0)
(-0.0235976 -0.00781804 0)
(-0.0219138 -0.00776083 0)
(-0.0202427 -0.00765917 0)
(-0.0185932 -0.00751349 0)
(-0.0169742 -0.00732463 0)
(-0.0153945 -0.00709383 0)
(-0.0138625 -0.00682274 0)
(-0.012386 -0.00651341 0)
(-0.0109729 -0.00616835 0)
(-0.00962992 -0.00579049 0)
(-0.00836363 -0.00538319 0)
(-0.00717966 -0.00495029 0)
(-0.00608289 -0.00449609 0)
(-0.00507729 -0.00402539 0)
(-0.00416589 -0.0035435 0)
(-0.00335061 -0.00305635 0)
(-0.00263228 -0.00257044 0)
(-0.00201048 -0.00209302 0)
(-0.00148351 -0.0016321 0)
(-0.00104828 -0.00119659 0)
(-0.000700309 -0.000796441 0)
(-0.000433592 -0.000442774 0)
(-0.0002406 -0.000148076 0)
(-0.000112198 7.35696e-05 0)
(-3.75541e-05 0.000206289 0)
(-4.10907e-06 0.000232109 0)
(1.99554e-06 0.000129308 0)
(-1.39649e-05 6.73477e-05 0)
(-0.000104433 0.000351605 0)
(-0.000313047 0.000744035 0)
(-0.000629585 0.00121239 0)
(-0.00105112 0.0017314 0)
(-0.0015777 0.00228022 0)
(-0.00220795 0.00284189 0)
(-0.00293936 0.0034029 0)
(-0.00376866 0.00395263 0)
(-0.00469184 0.00448287 0)
(-0.00570429 0.00498743 0)
(-0.00680085 0.00546178 0)
(-0.00797593 0.00590275 0)
(-0.00922364 0.00630822 0)
(-0.0105378 0.00667698 0)
(-0.0119123 0.00700845 0)
(-0.0133406 0.00730261 0)
(-0.0148164 0.0075598 0)
(-0.0163333 0.00778062 0)
(-0.0178851 0.0079659 0)
(-0.0194656 0.00811653 0)
(-0.0210685 0.00823348 0)
(-0.022688 0.00831773 0)
(-0.0243181 0.00837021 0)
(-0.025953 0.00839181 0)
(-0.0275871 0.00838332 0)
(-0.0292147 0.00834549 0)
(-0.0308305 0.00827893 0)
(-0.032429 0.0081842 0)
(-0.0340049 0.00806176 0)
(-0.0355529 0.00791198 0)
(-0.0370678 0.0077352 0)
(-0.0385446 0.00753167 0)
(-0.0399781 0.00730165 0)
(-0.0413632 0.00704535 0)
(-0.042695 0.006763 0)
(-0.0439687 0.00645485 0)
(-0.0451792 0.00612119 0)
(-0.046322 0.00576238 0)
(-0.0473923 0.00537885 0)
(-0.0483855 0.00497114 0)
(-0.0492973 0.00453991 0)
(-0.0501234 0.00408595 0)
(-0.0508597 0.0036102 0)
(-0.0515024 0.00311376 0)
(-0.0520477 0.00259791 0)
(-0.0524925 0.00206412 0)
(-0.0528335 0.00151404 0)
(-0.0530682 0.000949504 0)
(-0.053194 0.000372569 0)
(-0.0532092 -0.00021453 0)
(-0.0531122 -0.000809361 0)
(-0.0529018 -0.00140931 0)
(-0.0525776 -0.00201158 0)
(-0.0521396 -0.00261322 0)
(-0.0515881 -0.00321114 0)
(-0.0509243 -0.00380209 0)
(-0.0501498 -0.00438274 0)
(-0.049267 -0.00494967 0)
(-0.0482785 -0.00549941 0)
(-0.0471881 -0.00602844 0)
(-0.0459997 -0.00653327 0)
(-0.044718 -0.00701043 0)
(-0.0433485 -0.00745651 0)
(-0.041897 -0.00786823 0)
(-0.04037 -0.00824244 0)
(-0.0387746 -0.00857616 0)
(-0.0371184 -0.00886661 0)
(-0.0354092 -0.0091113 0)
(-0.0336556 -0.00930797 0)
(-0.0318665 -0.00945471 0)
(-0.0300508 -0.00954995 0)
(-0.0282181 -0.00959247 0)
(-0.0263778 -0.00958148 0)
(-0.0245397 -0.00951659 0)
(-0.0227136 -0.00939787 0)
(-0.020909 -0.00922583 0)
(-0.0191356 -0.00900149 0)
(-0.0174027 -0.00872633 0)
(-0.0157193 -0.00840234 0)
(-0.0140942 -0.008032 0)
(-0.0125354 -0.00761834 0)
(-0.0110507 -0.00716488 0)
(-0.00964698 -0.00667568 0)
(-0.00833037 -0.00615536 0)
(-0.00710628 -0.00560909 0)
(-0.00597912 -0.00504263 0)
(-0.00495229 -0.00446233 0)
(-0.0040281 -0.00387522 0)
(-0.00320768 -0.00328903 0)
(-0.00249093 -0.00271226 0)
(-0.0018764 -0.00215426 0)
(-0.0013613 -0.00162535 0)
(-0.000941399 -0.00113693 0)
(-0.000611019 -0.00070161 0)
(-0.000362995 -0.000333421 0)
(-0.000188617 -4.80144e-05 0)
(-7.75503e-05 0.000137141 0)
(-1.84937e-05 0.000202482 0)
(-2.68272e-07 0.000124725 0)
(-1.72845e-05 0.000124973 0)
(-0.00012568 0.000523394 0)
(-0.000371964 0.00102928 0)
(-0.000741164 0.00161023 0)
(-0.00122754 0.00224049 0)
(-0.00182948 0.00289857 0)
(-0.00254411 0.0035668 0)
(-0.00336768 0.00423096 0)
(-0.00429585 0.00487974 0)
(-0.00532378 0.00550434 0)
(-0.00644609 0.00609806 0)
(-0.00765704 0.00665592 0)
(-0.00895049 0.00717442 0)
(-0.0103201 0.0076512 0)
(-0.0117593 0.00808485 0)
(-0.0132614 0.00847473 0)
(-0.0148198 0.00882073 0)
(-0.0164276 0.00912322 0)
(-0.0180782 0.00938285 0)
(-0.019765 0.00960049 0)
(-0.0214813 0.00977715 0)
(-0.0232207 0.00991388 0)
(-0.0249769 0.0100118 0)
(-0.0267436 0.0100719 0)
(-0.0285147 0.0100952 0)
(-0.0302842 0.0100826 0)
(-0.032046 0.010035 0)
(-0.0337945 0.00995296 0)
(-0.0355238 0.00983724 0)
(-0.0372282 0.00968832 0)
(-0.0389021 0.00950665 0)
(-0.04054 0.00929263 0)
(-0.0421363 0.00904656 0)
(-0.0436857 0.00876875 0)
(-0.0451827 0.00845948 0)
(-0.046622 0.00811902 0)
(-0.0479983 0.00774772 0)
(-0.0493065 0.00734592 0)
(-0.0505415 0.00691409 0)
(-0.0516982 0.00645277 0)
(-0.0527719 0.00596264 0)
(-0.0537578 0.00544449 0)
(-0.0546513 0.0048993 0)
(-0.0554481 0.00432821 0)
(-0.0561441 0.00373256 0)
(-0.0567354 0.0031139 0)
(-0.0572185 0.00247398 0)
(-0.05759 0.00181479 0)
(-0.0578472 0.00113853 0)
(-0.0579874 0.000447638 0)
(-0.0580086 -0.000255207 0)
(-0.0579091 -0.000967116 0)
(-0.0576879 -0.00168498 0)
(-0.0573443 -0.00240549 0)
(-0.0568782 -0.00312514 0)
(-0.0562902 -0.00384025 0)
(-0.0555813 -0.004547 0)
(-0.0547533 -0.00524145 0)
(-0.0538086 -0.00591954 0)
(-0.0527501 -0.00657716 0)
(-0.0515816 -0.00721017 0)
(-0.0503074 -0.00781443 0)
(-0.0489324 -0.00838584 0)
(-0.0474623 -0.00892039 0)
(-0.0459033 -0.00941418 0)