/*--------------------------------*- C++ -*----------------------------------*\
| =========                 |                                                 |
| \\      /  F ield         | OpenFOAM: The Open Source CFD Toolbox           |
|  \\    /   O peration     | Version:  2512                                  |
|   \\  /    A nd           | Website:  www.openfoam.com                      |
|    \\/     M anipulation  |                                                 |
\*---------------------------------------------------------------------------*/
FoamFile
{
    version     2.0;
    format      ascii;
    arch        "LSB;label=32;scalar=64";
    class       volScalarField;
    location    "0.24";
    object      p;
}
// * * * * * * * * * * * * * * * * * * * * * * * * * * * * * * * * * * * * * //

dimensions      [0 2 -2 0 0 0 0];

internalField   nonuniform List<scalar> 
10000
(
1.25638e-08
-5.93e-06
-4.12059e-05
-0.000102092
-0.000181389
-0.000274178
-0.000375745
-0.000481861
-0.000588893
-0.000693885
-0.000794401
-0.000888444
-0.000974378
-0.00105086
-0.00111681
-0.0011714
-0.00121399
-0.00124409
-0.00126133
-0.00126544
-0.00125625
-0.0012337
-0.00119775
-0.00114842
-0.00108574
-0.00100982
-0.00092079
-0.000818803
-0.000704023
-0.000576621
-0.000436803
-0.000284792
-0.000120824
5.48573e-05
0.000241984
0.000440268
0.000649396
0.000869034
0.00109882
0.00133835
0.00158718
0.00184485
0.00211088
0.00238473
0.00266584
0.00295357
0.00324725
0.00354613
0.00384946
0.00415643
0.00446621
0.0047779
0.00509058
0.00540323
0.00571483
0.00602431
0.00633059
0.00663258
0.00692916
0.00721922
0.00750163
0.00777525
0.00803897
0.00829168
0.00853235
0.00875995
0.00897354
0.00917223
0.00935522
0.00952176
0.00967122
0.00980306
0.00991685
0.0100123
0.0100891
0.0101474
0.0101871
0.0102084
0.0102118
0.0101978
0.010167
0.0101203
0.0100587
0.00998323
0.00989532
0.00979642
0.00968818
0.00957245
0.00945127
0.00932686
0.00920169
0.00907847
0.00896017
0.00885008
0.00875174
0.008669
0.00860569
0.00856543
0.00855114
0.00855923
-5.47122e-06
-1.1057e-05
-4.16287e-05
-9.31525e-05
-0.000159975
-0.000238228
-0.000324314
-0.000414825
-0.000506675
-0.000597209
-0.000684188
-0.000765738
-0.000840291
-0.000906539
-0.000963395
-0.00101
-0.00104568
-0.0010699
-0.00108225
-0.0010824
-0.00107015
-0.00104537
-0.00100798
-0.000957965
-0.000895319
-0.000820103
-0.000732423
-0.000632406
-0.000520182
-0.000395896
-0.000259732
-0.000111906
4.73541e-05
0.000217818
0.000399236
0.000591331
0.000793799
0.00100631
0.00122851
0.00145999
0.00170032
0.00194905
0.00220571
0.00246978
0.00274071
0.00301789
0.00330063
0.00358823
0.00387996
0.00417504
0.00447268
0.00477203
0.00507217
0.00537217
0.00567102
0.00596772
0.00626125
0.00655057
0.00683463
0.00711239
0.00738277
0.00764473
0.00789721
0.00813918
0.00836966
0.00858772
0.00879249
0.00898314
0.00915893
0.0093192
0.00946336
0.00959095
0.00970156
0.00979493
0.00987091
0.00992946
0.00997069
0.00999483
0.0100023
0.00999351
0.00996923
0.00993025
0.00987751
0.00981213
0.00973538
0.00964866
0.00955355
0.0094518
0.0093453
0.00923614
0.00912657
0.00901906
0.00891622
0.00882089
0.00873602
0.00866464
0.00860957
0.00857331
0.00855915
0.0085673
1.32749e-05
6.43973e-06
-2.20644e-05
-6.86037e-05
-0.000128268
-0.000197686
-0.000273864
-0.00035394
-0.000435283
-0.00051554
-0.000592675
-0.000664963
-0.000730928
-0.000789323
-0.000839113
-0.000879444
-0.000909637
-0.000929141
-0.000937512
-0.000934421
-0.000919637
-0.000892995
-0.000854383
-0.000803743
-0.000741063
-0.000666381
-0.000579778
-0.000481354
-0.000371214
-0.000249484
-0.000116332
2.80344e-05
0.000183397
0.000349541
0.000526229
0.000713198
0.000910153
0.00111677
0.00133269
0.00155752
0.00179085
0.00203223
0.00228121
0.00253728
0.0027999
0.00306846
0.00334231
0.00362076
0.00390311
0.00418861
0.00447648
0.00476591
0.00505602
0.00534589
0.00563458
0.00592111
0.00620451
0.00648379
0.00675796
0.00702601
0.00728693
0.0075397
0.00778335
0.00801689
0.0082394
0.00844999
0.00864785
0.00883221
0.00900238
0.00915775
0.00929777
0.00942201
0.00953012
0.00962185
0.00969708
0.0097558
0.00979814
0.00982433
0.00983476
0.00982995
0.00981055
0.00977736
0.0097313
0.00967344
0.009605
0.00952733
0.00944193
0.00935044
0.00925464
0.00915647
0.00905802
0.00896149
0.00886924
0.00878375
0.00870755
0.00864319
0.00859294
0.00855895
0.00854494
0.00855318
5.91308e-05
4.58623e-05
1.5159e-05
-3.02689e-05
-8.68351e-05
-0.000151609
-0.000221922
-0.000295319
-0.000369548
-0.000442553
-0.000512524
-0.00057789
-0.000637287
-0.000689553
-0.00073373
-0.000769015
-0.000794735
-0.000810335
-0.000815379
-0.000809552
-0.000792612
-0.000764364
-0.000724674
-0.000673474
-0.000610742
-0.000536498
-0.000450804
-0.000353737
-0.000245383
-0.000125857
4.67918e-06
0.000146032
0.000298001
0.000460387
0.00063297
0.000815491
0.00100766
0.00120916
0.00141963
0.00163871
0.001866
0.00210106
0.00234345
0.00259267
0.00284819
0.00310942
0.00337572
0.00364643
0.00392087
0.00419831
0.004478
0.00475914
0.00504088
0.00532234
0.0056026
0.00588073
0.00615578
0.00642681
0.00669286
0.00695296
0.00720615
0.00745145
0.00768791
0.0079146
0.00813064
0.00833518
0.00852745
0.00870673
0.00887235
0.00902374
0.0091604
0.00928191
0.00938795
0.0094783
0.00955285
0.00961162
0.00965473
0.00968243
0.00969511
0.00969328
0.00967757
0.00964876
0.00960776
0.00955558
0.0094934
0.00942251
0.00934433
0.00926041
0.00917243
0.00908217
0.00899156
0.00890261
0.00881743
0.00873822
0.00866721
0.00860661
0.00855844
0.00852465
0.00850882
0.00851349
0.000127349
0.000102768
6.63458e-05
1.91487e-05
-3.69695e-05
-9.95686e-05
-0.000166348
-0.000235216
-0.00030425
-0.000371704
-0.000435998
-0.000495722
-0.000549647
-0.000596727
-0.000636083
-0.000666961
-0.000688724
-0.000700844
-0.000702906
-0.000694605
-0.000675696
-0.000645971
-0.000605287
-0.000553573
-0.000490802
-0.00041698
-0.000332148
-0.000236361
-0.00012969
-1.2249e-05
0.000115805
0.000254294
0.000403041
0.000561868
0.000730565
0.000908879
0.00109652
0.00129318
0.00149852
0.00171219
0.0019338
0.00216294
0.00239918
0.00264201
0.00289093
0.00314535
0.00340467
0.00366824
0.0039354
0.00420544
0.00447764
0.00475122
0.00502536
0.00529918
0.00557181
0.00584234
0.00610987
0.00637349
0.00663226
0.00688526
0.00713154
0.00737017
0.00760024
0.00782084
0.00803113
0.00823031
0.00841763
0.0085924
0.00875399
0.00890185
0.00903551
0.00915457
0.00925874
0.00934781
0.00942169
0.0094804
0.00952408
0.00955297
0.00956747
0.00956807
0.00955539
0.00953019
0.00949334
0.00944582
0.00938877
0.0093234
0.00925106
0.00917322
0.00909142
0.00900735
0.00892274
0.00883944
0.00875933
0.00868437
0.00861649
0.00855764
0.00850961
0.00847414
0.00845407
0.00845131
0.000211923
0.000173265
0.000128569
7.72599e-05
1.93652e-05
-4.31674e-05
-0.000108406
-0.000174618
-0.000240197
-0.000303663
-0.000363654
-0.000418948
-0.000468467
-0.000511283
-0.000546601
-0.000573729
-0.000592077
-0.000601171
-0.000600628
-0.000590149
-0.000569489
-0.000538445
-0.000496879
-0.000444725
-0.000381948
-0.000308544
-0.000224532
-0.000129955
-2.48787e-05
9.05883e-05
0.000216298
0.000352088
0.000497805
0.000653286
0.000818331
0.000992692
0.00117608
0.00136821
0.00156875
0.00177738
0.00199372
0.00221738
0.00244791
0.00268485
0.00292768
0.00317586
0.0034288
0.00368586
0.0039464
0.00420974
0.00447518
0.00474194
0.00500923
0.00527622
0.00554204
0.00580581
0.00606667
0.00632372
0.00657607
0.0068228
0.00706302
0.0072958
0.00752027
0.00773556
0.00794084
0.00813534
0.00831834
0.00848918
0.00864726
0.00879204
0.00892307
0.00903997
0.00914246
0.00923036
0.00930357
0.00936213
0.00940618
0.00943596
0.00945185
0.00945434
0.00944405
0.0094217
0.00938813
0.0093443
0.00929126
0.0092302
0.00916238
0.00908918
0.00901205
0.00893253
0.00885222
0.00877279
0.00869593
0.00862338
0.00855681
0.00849792
0.00844828
0.00840946
0.00838313
0.00837017
0.000307718
0.000253513
0.00019889
0.000141705
8.0197e-05
1.59249e-05
-4.95033e-05
-0.000114711
-0.000178391
-0.000239298
-0.000296278
-0.000348297
-0.000394441
-0.000433899
-0.000465959
-0.000489997
-0.000505497
-0.000512045
-0.000509294
-0.000496952
-0.000474785
-0.000442608
-0.000400301
-0.000347801
-0.00028507
-0.000212084
-0.000128855
-3.54252e-05
6.81404e-05
0.000181743
0.00030525
0.00043852
0.000581413
0.00073378
0.000895426
0.00106611
0.00124555
0.00143348
0.0016296
0.00183359
0.00204509
0.00226372
0.00248904
0.00272061
0.00295793
0.00320046
0.00344764
0.00369886
0.00395348
0.00421085
0.00447028
0.00473101
0.00499227
0.00525325
0.0055131
0.00577099
0.00602604
0.0062774
0.0065242
0.00676554
0.00700055
0.00722833
0.00744802
0.00765877
0.00785979
0.00805032
0.00822966
0.00839717
0.00855226
0.00869442
0.0088232
0.00893824
0.00903927
0.0091261
0.00919867
0.00925699
0.00930121
0.00933158
0.00934846
0.00935234
0.0093438
0.00932356
0.00929242
0.0092513
0.00920121
0.00914328
0.00907871
0.00900877
0.00893485
0.00885834
0.00878073
0.00870352
0.00862824
0.00855641
0.00848951
0.00842899
0.00837624
0.00833262
0.00829854
0.00827368
0.000410337
0.000339894
0.000274366
0.00021008
0.000143575
7.61344e-05
9.10102e-06
-5.64787e-05
-0.00011956
-0.000179125
-0.000234226
-0.000284008
-0.000327704
-0.000364619
-0.000394131
-0.000415708
-0.000428911
-0.000433379
-0.000428798
-0.000414901
-0.000391477
-0.000358367
-0.000315471
-0.000262733
-0.000200105
-0.000127553
-4.50895e-05
4.72393e-05
0.000149368
0.000261208
0.000382648
0.000513561
0.000653824
0.000803293
0.000961781
0.00112905
0.00130485
0.00148891
0.00168095
0.00188069
0.00208777
0.00230182
0.00252241
0.00274912
0.00298147
0.00321894
0.00346098
0.00370699
0.00395637
0.00420847
0.00446261
0.00471807
0.00497408
0.00522984
0.00548455
0.00573736
0.00598745
0.00623397
0.00647605
0.00671284
0.00694346
0.00716704
0.00738273
0.0075897
0.00778717
0.00797441
0.00815071
0.00831546
0.00846807
0.00860805
0.00873495
0.00884842
0.00894819
0.00903409
0.00910603
0.00916405
0.00920828
0.00923897
0.00925647
0.00926125
0.0092539
0.00923508
0.00920559
0.00916629
0.00911818
0.00906231
0.00899981
0.00893191
0.00885986
0.00878499
0.00870866
0.00863222
0.00855705
0.0084845
0.00841586
0.00835237
0.00829527
0.00824574
0.00820289
0.0081652
0.000516074
0.000429235
0.000352251
0.000280054
0.000207574
0.000135871
6.60987e-05
-9.66978e-07
-6.45282e-05
-0.000123784
-0.000177985
-0.000226438
-0.000268504
-0.000303603
-0.00033122
-0.000350922
-0.000362343
-0.000365167
-0.000359117
-0.000343967
-0.000319539
-0.000285704
-0.000242378
-0.000189509
-0.000127045
-5.49564e-05
2.67427e-05
0.000117999
0.000218752
0.000328926
0.000448425
0.000577138
0.00071495
0.000861726
0.00101728
0.0011814
0.00135383
0.00153434
0.00172267
0.00191853
0.00212159
0.00233149
0.00254783
0.00277017
0.00299808
0.00323104
0.00346852
0.00370996
0.00395474
0.00420225
0.0044518
0.00470271
0.00495421
0.00520553
0.00545587
0.00570441
0.00595033
0.00619281
0.00643099
0.00666402
0.00689104
0.00711119
0.00732363
0.00752755
0.00772217
0.00790676
0.00808063
0.00824317
0.00839381
0.00853203
0.00865741
0.0087696
0.00886833
0.00895341
0.00902477
0.00908244
0.00912653
0.0091573
0.0091751
0.00918036
0.00917366
0.00915565
0.00912709
0.00908882
0.00904178
0.00898699
0.00892552
0.00885852
0.00878718
0.00871272
0.0086364
0.00855946
0.00848313
0.00840863
0.00833708
0.00826951
0.00820708
0.00815081
0.00809853
0.00804763
0.00062191
0.000518802
0.000430099
0.00034947
0.000270325
0.000193548
0.000120164
5.07196e-05
-1.42147e-05
-7.40397e-05
-0.000128179
-0.000176082
-0.000217234
-0.000251172
-0.000277497
-0.000295865
-0.000305974
-0.000307558
-0.000300385
-0.000284277
-0.000259097
-0.000224744
-0.000181146
-0.000128253
-6.60229e-05
5.56594e-06
8.64892e-05
0.000176693
0.000276124
0.000384719
0.000502395
0.000629055
0.000764589
0.000908866
0.00106171
0.00122292
0.00139227
0.00156954
0.00175448
0.00194683
0.00214628
0.00235245
0.00256498
0.00278345
0.00300742
0.00323642
0.00346993
0.00370739
0.00394821
0.00419178
0.00443743
0.00468449
0.00493221
0.00517982
0.00542655
0.00567159
0.00591413
0.00615334
0.0063884
0.00661845
0.00684264
0.00706011
0.00727004
0.0074716
0.00766404
0.00784661
0.00801865
0.00817953
0.00832866
0.00846557
0.0085898
0.008701
0.00879889
0.0088833
0.00895414
0.00901142
0.00905527
0.00908592
0.00910371
0.00910908
0.00910255
0.00908479
0.00905651
0.00901853
0.00897176
0.00891716
0.00885576
0.00878865
0.00871695
0.00864181
0.00856438
0.00848581
0.00840723
0.00832972
0.00825425
0.00818172
0.00811319
0.00804957
0.00798753
0.00792339
0.00072525
0.000606199
0.000505734
0.000416351
0.00033007
0.000247643
0.000169987
9.74516e-05
3.04067e-05
-3.07204e-05
-8.55e-05
-0.000133514
-0.000174375
-0.000207744
-0.000233322
-0.000250842
-0.000260067
-0.000260783
-0.000252816
-0.000236036
-0.000210349
-0.000175675
-0.000131957
-7.91517e-05
-1.72299e-05
5.38126e-05
0.000133943
0.000223109
0.000321266
0.000428363
0.000544329
0.000669072
0.000802488
0.000944453
0.0010948
0.00125335
0.00141989
0.00159421
0.0017761
0.00196531
0.00216151
0.00236438
0.00257354
0.0027886
0.00300915
0.00323472
0.00346481
0.00369888
0.00393635
0.00417662
0.00441903
0.00466292
0.00490756
0.0051522
0.00539605
0.00563834
0.00587825
0.00611496
0.00634765
0.00657548
0.00679758
0.00701311
0.00722123
0.00742114
0.00761205
0.00779324
0.00796403
0.00812377
0.0082719
0.00840791
0.00853135
0.00864186
0.00873916
0.00882305
0.00889344
0.00895034
0.00899386
0.00902422
0.00904175
0.00904687
0.0090401
0.00902207
0.00899349
0.00895514
0.00890789
0.00885267
0.00879048
0.00872235
0.00864934
0.00857253
0.00849301
0.00841183
0.00833003
0.0082486
0.00816838
0.00809016
0.00801494
0.00794357
0.00787163
0.00779447
0.000823852
0.000689308
0.000577185
0.000478896
0.000385185
0.000296708
0.000214285
0.000138095
6.83445e-05
5.32046e-06
-5.0679e-05
-9.93684e-05
-0.000140489
-0.000173811
-0.000199122
-0.000216223
-0.000224946
-0.000225142
-0.000216691
-0.000199514
-0.000173549
-0.000138741
-9.50462e-05
-4.24391e-05
1.9092e-05
8.95354e-05
0.000168851
0.000256991
0.000353919
0.000459594
0.000573954
0.000696908
0.000828356
0.000968185
0.00111625
0.00127236
0.00143636
0.00160803
0.00178719
0.00197359
0.00216694
0.00236689
0.00257312
0.00278523
0.00300285
0.00322551
0.00345273
0.00368398
0.0039187
0.00415628
0.0043961
0.00463749
0.00487974
0.0051221
0.0053638
0.00560406
0.00584208
0.00607704
0.00630811
0.00653444
0.00675519
0.0069695
0.00717652
0.00737544
0.00756549
0.00774591
0.00791602
0.00807517
0.00822278
0.00835833
0.00848136
0.0085915
0.00868844
0.00877198
0.00884203
0.00889857
0.0089417
0.00897164
0.00898869
0.00899327
0.00898588
0.00896713
0.00893771
0.00889838
0.00884999
0.00879343
0.00872966
0.00865968
0.0085845
0.00850515
0.00842265
0.008338
0.00825215
0.00816601
0.00808034
0.00799585
0.00791349
0.0078341
0.00775224
0.00766241
0.000915783
0.00076626
0.000642689
0.000535474
0.000434164
0.000339356
0.000251798
0.000171524
9.86095e-05
3.32165e-05
-2.44848e-05
-7.43376e-05
-0.000116196
-0.00014992
-0.000175377
-0.00019244
-0.000201009
-0.000201001
-0.000192356
-0.000175036
-0.000149009
-0.000114237
-7.07031e-05
-1.8405e-05
4.26501e-05
0.000112439
0.000190917
0.00027804
0.00037378
0.000478104
0.000590952
0.000712237
0.000841862
0.000979725
0.00112569
0.00127961
0.00144131
0.00161063
0.00178737
0.0019713
0.00216214
0.00235958
0.00256329
0.00277291
0.00298806
0.00320832
0.0034332
0.00366219
0.00389473
0.00413024
0.00436809
0.00460763
0.00484816
0.00508892
0.00532918
0.00556813
0.00580498
0.00603891
0.00626909
0.00649467
0.00671479
0.00692858
0.0071352
0.00733381
0.00752363
0.00770391
0.00787392
0.00803303
0.00818061
0.00831614
0.00843915
0.00854923
0.00864608
0.00872947
0.00879929
0.00885553
0.00889825
0.00892766
0.00894406
0.00894784
0.0089395
0.00891963
0.00888889
0.00884804
0.0087979
0.00873934
0.00867329
0.00860072
0.00852259
0.00843991
0.00835365
0.00826475
0.00817412
0.00808259
0.00799089
0.00789964
0.00780981
0.00772222
0.00763052
0.00752842
0.000999385
0.000835411
0.000700666
0.000584589
0.000475605
0.000374278
0.000281321
0.000196651
0.000120224
5.20824e-05
-7.72667e-06
-5.91558e-05
-0.000102152
-0.000136658
-0.000162617
-0.000179977
-0.000188707
-0.000188789
-0.000180214
-0.000162981
-0.000137083
-0.00010251
-5.92704e-05
-7.39013e-06
5.31042e-05
0.000122182
0.000199799
0.000285915
0.000380506
0.000483543
0.000594967
0.000714691
0.000842628
0.000978688
0.00112276
0.00127469
0.00143435
0.00160158
0.0017762
0.00195799
0.00214668
0.00234198
0.00254358
0.00275114
0.00296429
0.00318263
0.00340569
0.00363296
0.00386389
0.00409792
0.00433442
0.00457274
0.00481219
0.00505205
0.00529154
0.00552988
0.00576628
0.00599991
0.00622992
0.00645546
0.00667566
0.00688964
0.00709654
0.00729552
0.00748577
0.00766652
0.00783703
0.00799663
0.00814469
0.00828066
0.00840404
0.00851442
0.00861146
0.00869492
0.00876468
0.00882068
0.00886301
0.00889183
0.00890743
0.00891021
0.00890063
0.00887927
0.0088468
0.00880394
0.0087515
0.00869034
0.00862137
0.00854552
0.00846376
0.00837704
0.0082863
0.00819247
0.0080964
0.0079989
0.00790066
0.00780224
0.00770466
0.00760876
0.00750736
0.0073934
0.00107323
0.00089531
0.000749675
0.000624847
0.000508182
0.000400238
0.000301716
0.00021243
0.000132222
6.10211e-05
-1.23055e-06
-5.45748e-05
-9.90383e-05
-0.000134644
-0.000161414
-0.000179369
-0.000188545
-0.000188982
-0.000180712
-0.000163768
-0.000138175
-0.000103953
-6.11389e-05
-9.7847e-06
5.00685e-05
0.000118383
0.000195116
0.000280233
0.000373712
0.00047552
0.000585595
0.000703861
0.000830239
0.000964652
0.001107
0.00125717
0.00141503
0.00158043
0.00175321
0.00193317
0.00212005
0.00231358
0.00251346
0.00271938
0.00293099
0.00314789
0.00336963
0.0035957
0.00382558
0.00405869
0.00429443
0.00453216
0.00477119
0.00501079
0.0052502
0.00548863
0.00572527
0.0059593
0.00618986
0.00641608
0.00663707
0.00685195
0.00705983
0.00725985
0.00745118
0.00763303
0.00780463
0.00796529
0.00811436
0.00825124
0.00837542
0.00848645
0.008584
0.00866778
0.00873764
0.00879353
0.0088355
0.0088637
0.00887842
0.00888001
0.00886895
0.00884581
0.00881122
0.00876592
0.00871069
0.00864639
0.00857391
0.00849418
0.00840814
0.00831673
0.00822088
0.00812148
0.0080194
0.00791541
0.00781017
0.00770424
0.00759869
0.00749439
0.0073834
0.00725799
0.00113605
0.00094465
0.000788405
0.000654964
0.000530671
0.000416085
0.000311903
0.000217843
0.000133641
5.91314e-05
-5.82596e-06
-6.13531e-05
-0.000107554
-0.00014453
-0.000172378
-0.000191192
-0.000201068
-0.000202093
-0.000194335
-0.00017786
-0.000152732
-0.000119005
-7.67432e-05
-2.60182e-05
3.31158e-05
0.000100619
0.000176452
0.000260577
0.000352969
0.000453596
0.000562396
0.000679298
0.000804237
0.000937151
0.00107796
0.00122657
0.00138284
0.00154667
0.00171788
0.00189631
0.0020817
0.00227381
0.00247236
0.00267705
0.00288755
0.00310347
0.00332437
0.00354976
0.00377912
0.00401188
0.00424745
0.00448519
0.00472442
0.00496442
0.00520441
0.00544362
0.00568121
0.00591634
0.00614816
0.00637577
0.00659827
0.00681475
0.0070243
0.00722605
0.00741913
0.00760272
0.00777603
0.00793832
0.00808892
0.00822721
0.00835264
0.00846473
0.00856311
0.00864749
0.00871768
0.0087736
0.00881529
0.00884289
0.00885666
0.00885694
0.00884421
0.00881901
0.00878198
0.00873385
0.00867539
0.00860745
0.00853094
0.00844676
0.00835585
0.00825916
0.00815761
0.00805209
0.00794345
0.00783249
0.00771985
0.00760609
0.00749235
0.00737958
0.00725911
0.00712259
0.00118666
0.000982239
0.000815665
0.000673774
0.000541944
0.000420736
0.000310841
0.00021189
0.000123532
4.55294e-05
-2.23321e-05
-8.02526e-05
-0.000128414
-0.000166991
-0.000196153
-0.000216059
-0.000226853
-0.000228663
-0.000221596
-0.000205756
-0.000181243
-0.000148148
-0.000106559
-5.65616e-05
1.78462e-06
6.84359e-05
0.000143348
0.000226483
0.000317812
0.000417298
0.000524885
0.00064051
0.000764123
0.00089568
0.00103512
0.00118234
0.00133725
0.00149973
0.00166965
0.00184682
0.00203104
0.00222207
0.00241965
0.0026235
0.00283331
0.00304869
0.00326923
0.00349443
0.00372378
0.00395674
0.00419271
0.00443106
0.00467112
0.00491215
0.0051534
0.00539404
0.00563327
0.00587022
0.006104
0.00633372
0.00655844
0.00677723
0.00698917
0.00719334
0.00738885
0.00757483
0.00775047
0.007915
0.0080677
0.00820792
0.00833507
0.00844865
0.00854824
0.00863353
0.0087043
0.00876044
0.00880198
0.00882903
0.00884183
0.00884072
0.00882616
0.00879868
0.00875893
0.00870762
0.00864553
0.00857352
0.00849248
0.00840333
0.00830702
0.0082045
0.0080967
0.00798452
0.00786883
0.00775044
0.00763001
0.00750813
0.00738599
0.00726466
0.00713479
0.00698743
0.00122402
0.00100699
0.000830371
0.000680205
0.000540948
0.000413158
0.000297522
0.000193605
0.000100987
1.93606e-05
-5.15558e-05
-0.000112038
-0.000162347
-0.000202728
-0.00023341
-0.000254602
-0.000266497
-0.000269261
-0.000263045
-0.000247992
-0.000224239
-0.000191905
-0.000151098
-0.000101915
-4.44216e-05
2.13364e-05
9.53097e-05
0.000177451
0.000267728
0.000366106
0.000472535
0.000586965
0.000709358
0.000839686
0.0009779
0.00112393
0.00127767
0.00143902
0.00160787
0.00178406
0.0019674
0.00215768
0.00235464
0.00255803
0.00276755
0.00298282
0.00320344
0.00342893
0.00365879
0.00389247
0.0041294
0.00436895
0.00461044
0.00485315
0.00509628
0.00533905
0.0055806
0.00582005
0.00605652
0.00628906
0.00651673
0.00673856
0.0069536
0.0071609
0.00735953
0.00754859
0.00772723
0.00789462
0.00805001
0.00819271
0.0083221
0.00843762
0.00853884
0.00862538
0.00869702
0.00875362
0.00879517
0.00882176
0.00883362
0.00883108
0.00881458
0.00878465
0.00874194
0.00868715
0.00862108
0.00854458
0.00845857
0.00836397
0.00826176
0.00815288
0.00803832
0.00791898
0.00779576
0.0076695
0.00754091
0.00741059
0.00727985
0.00714983
0.00701058
0.00685257
0.00124713
0.00101791
0.000831521
0.000673256
0.000526677
0.000392351
0.000270979
0.000162065
6.5127e-05
-2.021e-05
-9.42994e-05
-0.000157487
-0.000210103
-0.000252455
-0.000284826
-0.000307468
-0.000320615
-0.000324483
-0.000319265
-0.000305142
-0.000282283
-0.000250828
-0.000210904
-0.000162614
-0.00010603
-4.1206e-05
3.18013e-05
0.000112938
0.00020217
0.000299465
0.000404784
0.000518088
0.000639357
0.000768575
0.000905707
0.00105069
0.00120344
0.00136388
0.00153189
0.00170735
0.00189009
0.00207991
0.00227659
0.00247987
0.00268947
0.00290505
0.00312618
0.00335242
0.00358327
0.0038182
0.00405664
0.00429796
0.00454148
0.00478647
0.00503215
0.0052777
0.00552226
0.00576492
0.00600478
0.00624087
0.00647222
0.00669783
0.00691671
0.00712787
0.00733035
0.00752319
0.00770549
0.0078764
0.00803512
0.00818089
0.00831306
0.00843104
0.00853432
0.00862253
0.00869538
0.00875271
0.00879447
0.00882075
0.00883175
0.00882778
0.00880927
0.00877676
0.00873088
0.00867236
0.00860198
0.00852064
0.00842923
0.00832874
0.00822015
0.00810444
0.00798261
0.00785562
0.00772441
0.00758986
0.00745271
0.00731363
0.00717403
0.00703517
0.0068865
0.00671791
0.00125513
0.00101406
0.000818163
0.000651962
0.000498171
0.000357378
0.000230303
0.000116394
1.51044e-05
-7.40088e-05
-0.000151366
-0.000217378
-0.000272434
-0.000316893
-0.000351084
-0.000375309
-0.000389847
-0.000394955
-0.00039087
-0.000377809
-0.000355967
-0.000325502
-0.00028655
-0.000239223
-0.000183605
-0.000119761
-4.77535e-05
3.23599e-05
0.000120545
0.000216775
0.000321022
0.000433263
0.000553491
0.000681704
0.000817875
0.000961954
0.00111388
0.00127357
0.00144096
0.00161592
0.00179832
0.00198797
0.00218467
0.00238818
0.00259823
0.00281449
0.00303656
0.00326399
0.0034963
0.00373298
0.00397345
0.00421709
0.00446323
0.00471113
0.00495999
0.00520899
0.00545723
0.00570381
0.00594778
0.00618816
0.00642393
0.00665407
0.00687755
0.00709332
0.00730038
0.00749773
0.00768443
0.00785955
0.00802226
0.00817174
0.00830729
0.00842826
0.00853413
0.00862444
0.00869889
0.00875727
0.00879952
0.00882568
0.00883594
0.00883059
0.00881006
0.00877487
0.00872567
0.00866319
0.00858824
0.0085017
0.00840453
0.00829772
0.00818229
0.00805927
0.0079297
0.00779458
0.00765491
0.00751162
0.00736551
0.00721733
0.00706859
0.00692067
0.00676245
0.00658327
0.00124719
0.000994585
0.00078939
0.000615409
0.00045453
0.000307361
0.000174636
5.57467e-05
-4.9914e-05
-0.000142853
-0.000223557
-0.000292489
-0.000350086
-0.000396757
-0.000432879
-0.000458801
-0.00047485
-0.000481327
-0.000478503
-0.000466627
-0.000445911
-0.000416531
-0.000378632
-0.00033234
-0.000277749
-0.000214935
-0.000143968
-6.49064e-05
2.22206e-05
0.000117394
0.0002206
0.000331828
0.000451083
0.000578373
0.000713685
0.00085698
0.00100821
0.00116733
0.00133428
0.00150896
0.00169125
0.00188099
0.00207799
0.00228204
0.00249288
0.00271018
0.00293357
0.00316262
0.00339685
0.00363575
0.00387877
0.00412529
0.00437462
0.00462603
0.00487871
0.0051318
0.00538442
0.00563562
0.00588443
0.00612984
0.00637079
0.00660623
0.00683508
0.00705624
0.00726867
0.00747131
0.00766314
0.00784322
0.00801062
0.0081645
0.00830407
0.00842865
0.00853764
0.00863057
0.00870706
0.00876689
0.00880993
0.00883622
0.00884591
0.00883929
0.00881676
0.00877886
0.00872623
0.00865961
0.00857982
0.0084878
0.00838451
0.00827098
0.00814828
0.00801749
0.0078797
0.00773597
0.00758736
0.00743487
0.00727939
0.0071217
0.00696348
0.00680624
0.00663826
0.00644834
0.00122249
0.000958637
0.000744354
0.000562749
0.000394908
0.000241457
0.00010314
-2.07087e-05
-0.000130757
-0.000227564
-0.000311668
-0.000383585
-0.000443798
-0.000492765
-0.000530911
-0.000558636
-0.00057631
-0.000584274
-0.000582829
-0.000572246
-0.000552754
-0.000524545
-0.000487779
-0.000442595
-0.000389098
-0.000327374
-0.000257497
-0.000179522
-9.34726e-05
6.43932e-07
0.000102826
0.000213075
0.000331406
0.000457837
0.000592368
0.000734979
0.00088564
0.00104432
0.00121099
0.00138557
0.00156797
0.00175803
0.0019556
0.00216047
0.0023724
0.00259109
0.00281616
0.00304722
0.0032838
0.0035254
0.00377146
0.00402138
0.00427447
0.00452998
0.00478709
0.00504494
0.00530261
0.00555914
0.00581353
0.00606472
0.00631163
0.00655316
0.00678818
0.00701555
0.00723415
0.00744288
0.00764066
0.00782647
0.00799934
0.00815834
0.00830264
0.00843148
0.00854423
0.00864033
0.00871938
0.00878109
0.00882531
0.00885204
0.0088614
0.00885366
0.00882922
0.00878861
0.00873248
0.00866157
0.00857675
0.00847896
0.00836922
0.00824859
0.0081182
0.00797919
0.0078327
0.00767987
0.00752183
0.00735966
0.00719432
0.00702671
0.00685862
0.0066917
0.00651366
0.00631275
0.0011803
0.000905436
0.000682259
0.00049318
0.000318497
0.000158848
1.49884e-05
-0.000113798
-0.000228238
-0.000328935
-0.000416474
-0.000491419
-0.000554305
-0.00060564
-0.000645899
-0.000675526
-0.000694933
-0.000704491
-0.000704528
-0.000695334
-0.000677157
-0.000650203
-0.000614652
-0.000570654
-0.000518327
-0.000457761
-0.000389031
-0.000312188
-0.000227244
-0.000134197
-3.30376e-05
7.62465e-05
0.00019368
0.000319292
0.000453097
0.000595096
0.000745279
0.000903641
0.00107017
0.00124481
0.00142749
0.00161808
0.00181644
0.00202239
0.00223569
0.00245606
0.00268317
0.00291661
0.00315594
0.00340067
0.00365026
0.00390409
0.00416148
0.00442166
0.00468382
0.00494707
0.00521048
0.00547305
0.00573375
0.0059915
0.00624516
0.00649359
0.00673561
0.00697003
0.00719566
0.00741133
0.0076159
0.00780829
0.00798744
0.00815237
0.00830216
0.008436
0.00855319
0.0086531
0.00873529
0.00879939
0.00884524
0.00887278
0.00888211
0.00887348
0.00884727
0.00880401
0.00874435
0.00866906
0.00857903
0.00847524
0.00835873
0.00823064
0.00809215
0.00794445
0.00778878
0.00762634
0.00745836
0.00728599
0.0071103
0.00693227
0.00675384
0.00657683
0.00638834
0.00617605
0.00111987
0.000834238
0.000602345
0.000405925
0.000224501
5.87278e-05
-9.06273e-05
-0.000224328
-0.000343148
-0.00044774
-0.000538732
-0.000616739
-0.000682349
-0.000736121
-0.000778577
-0.000810201
-0.000831436
-0.000842684
-0.000844294
-0.000836578
-0.000819802
-0.000794193
-0.000759944
-0.00071722
-0.000666146
-0.000606817
-0.000539302
-0.000463643
-0.000379845
-0.000287897
-0.000187779
-7.94693e-05
3.70681e-05
0.000161875
0.000294984
0.000436416
0.000586187
0.000744314
0.000910804
0.00108564
0.00126875
0.00146004
0.00165939
0.00186662
0.00208154
0.00230388
0.00253332
0.00276949
0.00301195
0.00326023
0.00351379
0.00377202
0.00403423
0.00429966
0.00456747
0.00483676
0.00510657
0.0053759
0.00564366
0.00590874
0.00616997
0.00642614
0.00667602
0.00691837
0.00715191
0.00737542
0.00758769
0.00778755
0.00797387
0.00814558
0.00830171
0.00844136
0.00856374
0.00866819
0.00875416
0.00882126
0.00886926
0.00889806
0.00890773
0.00889849
0.00887071
0.00882491
0.00876176
0.00868204
0.00858667
0.00847665
0.0083531
0.00821721
0.0080702
0.00791337
0.00774801
0.00757545
0.00739697
0.00721386
0.00702726
0.00683825
0.00664896
0.00646135
0.00626192
0.00603773
0.00104053
0.000744319
0.000503855
0.000300208
0.000112133
-5.9699e-05
-0.000214501
-0.000353082
-0.000476261
-0.000584739
-0.000679197
-0.000760299
-0.000828687
-0.000884964
-0.000929694
-0.000963397
-0.000986546
-0.000999568
-0.00100284
-0.000996684
-0.000981401
-0.000957231
-0.000924382
-0.000883029
-0.000833302
-0.000775295
-0.00070907
-0.00063466
-0.000552065
-0.000461264
-0.00036223
-0.000254929
-0.000139314
-1.53254e-05
0.000117088
0.000257972
0.000407366
0.000565311
0.000731837
0.000906947
0.0010906
0.00128272
0.00148321
0.00169192
0.00190866
0.00213321
0.00236526
0.00260446
0.0028504
0.00310261
0.00336056
0.00362365
0.00389118
0.00416239
0.00443644
0.0047124
0.00498929
0.00526608
0.00554166
0.00581487
0.00608449
0.00634926
0.0066079
0.00685908
0.00710148
0.00733379
0.00755471
0.007763
0.00795744
0.00813688
0.00830026
0.0084466
0.00857503
0.00868481
0.00877531
0.0088461
0.00889686
0.00892745
0.00893791
0.00892843
0.00889935
0.0088512
0.00878464
0.00870049
0.00859967
0.00848326
0.0083524
0.00820836
0.00805244
0.00788602
0.00771048
0.00752723
0.00733769
0.00714323
0.0069451
0.00674451
0.00654375
0.00634496
0.00613398
0.00589724
0.000941583
0.000634951
0.000386042
0.000175261
-1.93831e-05
-0.000197205
-0.000357401
-0.000500821
-0.000628335
-0.000740695
-0.000838634
-0.00092287
-0.000994086
-0.00105293
-0.0011
-0.00113586
-0.001161
-0.00117587
-0.00118088
-0.00117638
-0.00116269
-0.00114006
-0.00110872
-0.00106885
-0.00102057
-0.000963975
-0.000899127
-0.000826049
-0.000744733
-0.000655153
-0.00055727
-0.000451041
-0.000336401
-0.000213274
-8.15848e-05
5.87351e-05
0.000207752
0.000365532
0.000532129