/*--------------------------------*- C++ -*----------------------------------*\
| =========                 |                                                 |
| \\      /  F ield         | OpenFOAM: The Open Source CFD Toolbox           |
|  \\    /   O peration     | Version:  2512                                  |
|   \\  /    A nd           | Website:  www.openfoam.com                      |
|    \\/     M anipulation  |                                                 |
\*---------------------------------------------------------------------------*/
FoamFile
{
    version     2.0;
    format      ascii;
    arch        "LSB;label=32;scalar=64";
    class       volVectorField;
    location    "0.24";
    object      U;
}
// * * * * * * * * * * * * * * * * * * * * * * * * * * * * * * * * * * * * * //

dimensions      [0 1 -1 0 0 0 0];

internalField   nonuniform List<vector> 
10000
(
(2.73374e-06 -3.26422e-06 0)
(1.21754e-05 -6.13341e-06 0)
(2.37594e-05 -5.65649e-06 0)
(3.18356e-05 -3.7069e-06 0)
(3.28407e-05 -1.0832e-06 0)
(2.57977e-05 1.75062e-06 0)
(1.03701e-05 4.55524e-06 0)
(-1.3348e-05 7.2108e-06 0)
(-4.49932e-05 9.67013e-06 0)
(-8.40633e-05 1.19193e-05 0)
(-0.000129988 1.39549e-05 0)
(-0.000182161 1.5777e-05 0)
(-0.000239969 1.73922e-05 0)
(-0.000302809 1.88121e-05 0)
(-0.000370097 2.00491e-05 0)
(-0.000441272 2.11134e-05 0)
(-0.000515802 2.20169e-05 0)
(-0.000593182 2.27723e-05 0)
(-0.000672937 2.33898e-05 0)
(-0.000754624 2.38788e-05 0)
(-0.000837827 2.42495e-05 0)
(-0.000922154 2.45105e-05 0)
(-0.00100724 2.46694e-05 0)
(-0.00109274 2.47333e-05 0)
(-0.00117834 2.47082e-05 0)
(-0.00126373 2.45996e-05 0)
(-0.00134862 2.44124e-05 0)
(-0.00143275 2.41513e-05 0)
(-0.00151585 2.38197e-05 0)
(-0.00159768 2.34201e-05 0)
(-0.001678 2.29549e-05 0)
(-0.00175658 2.24263e-05 0)
(-0.00183318 2.18357e-05 0)
(-0.0019076 2.1183e-05 0)
(-0.00197961 2.04688e-05 0)
(-0.002049 1.96943e-05 0)
(-0.00211556 1.88609e-05 0)
(-0.00217908 1.79686e-05 0)
(-0.00223935 1.70168e-05 0)
(-0.00229617 1.60051e-05 0)
(-0.00234934 1.49334e-05 0)
(-0.00239865 1.38028e-05 0)
(-0.00244389 1.26145e-05 0)
(-0.00248489 1.13696e-05 0)
(-0.00252145 1.00688e-05 0)
(-0.00255338 8.71317e-06 0)
(-0.0025805 7.30446e-06 0)
(-0.00260266 5.84553e-06 0)
(-0.00261967 4.33982e-06 0)
(-0.00263141 2.79074e-06 0)
(-0.00263774 1.20215e-06 0)
(-0.00263853 -4.21586e-07 0)
(-0.00263369 -2.07523e-06 0)
(-0.00262314 -3.75254e-06 0)
(-0.00260681 -5.44701e-06 0)
(-0.00258466 -7.15175e-06 0)
(-0.00255669 -8.85901e-06 0)
(-0.00252291 -1.05605e-05 0)
(-0.00248336 -1.22475e-05 0)
(-0.00243811 -1.39108e-05 0)
(-0.00238728 -1.55406e-05 0)
(-0.00233099 -1.7127e-05 0)
(-0.00226941 -1.86595e-05 0)
(-0.00220276 -2.01278e-05 0)
(-0.00213127 -2.15217e-05 0)
(-0.00205522 -2.28305e-05 0)
(-0.00197491 -2.40434e-05 0)
(-0.00189069 -2.51499e-05 0)
(-0.00180293 -2.61401e-05 0)
(-0.00171205 -2.70047e-05 0)
(-0.00161847 -2.77345e-05 0)
(-0.00152268 -2.83214e-05 0)
(-0.00142515 -2.87577e-05 0)
(-0.0013264 -2.90366e-05 0)
(-0.00122698 -2.91517e-05 0)
(-0.00112744 -2.9098e-05 0)
(-0.00102834 -2.88715e-05 0)
(-0.000930259 -2.84692e-05 0)
(-0.000833793 -2.78893e-05 0)
(-0.000739527 -2.71312e-05 0)
(-0.000648051 -2.61952e-05 0)
(-0.000559948 -2.50828e-05 0)
(-0.000475793 -2.37964e-05 0)
(-0.000396148 -2.23399e-05 0)
(-0.000321558 -2.07181e-05 0)
(-0.000252544 -1.89368e-05 0)
(-0.000189599 -1.70037e-05 0)
(-0.000133184 -1.49279e-05 0)
(-8.37156e-05 -1.272e-05 0)
(-4.15623e-05 -1.03934e-05 0)
(-7.02755e-06 -7.96542e-06 0)
(1.9667e-05 -5.46031e-06 0)
(3.84089e-05 -2.91211e-06 0)
(4.92379e-05 -3.74701e-07 0)
(5.24153e-05 2.06289e-06 0)
(4.85387e-05 4.24969e-06 0)
(3.87002e-05 5.92396e-06 0)
(2.48132e-05 6.61922e-06 0)
(1.05923e-05 5.54357e-06 0)
(2.01029e-06 2.01526e-06 0)
(5.42512e-06 -1.20276e-05 0)
(1.986e-05 -2.0648e-05 0)
(3.42003e-05 -1.67723e-05 0)
(3.78613e-05 -6.13544e-06 0)
(2.47753e-05 8.05922e-06 0)
(-7.93054e-06 2.37971e-05 0)
(-6.15339e-05 3.98758e-05 0)
(-0.000136219 5.55892e-05 0)
(-0.000231463 7.05325e-05 0)
(-0.000346284 8.44822e-05 0)
(-0.000479422 9.73205e-05 0)
(-0.000629454 0.000108996 0)
(-0.000794882 0.000119501 0)
(-0.000974181 0.000128853 0)
(-0.00116584 0.000137089 0)
(-0.00136837 0.000144255 0)
(-0.00158037 0.000150405 0)
(-0.00180044 0.000155593 0)
(-0.0020273 0.000159876 0)
(-0.00225972 0.000163307 0)
(-0.00249651 0.00016594 0)
(-0.00273659 0.000167824 0)
(-0.00297892 0.000169007 0)
(-0.00322251 0.00016953 0)
(-0.00346643 0.000169431 0)
(-0.00370982 0.000168745 0)
(-0.00395185 0.000167504 0)
(-0.00419171 0.000165734 0)
(-0.00442866 0.000163459 0)
(-0.00466197 0.000160698 0)
(-0.00489094 0.000157467 0)
(-0.00511489 0.000153782 0)
(-0.00533318 0.000149654 0)
(-0.00554514 0.00014509 0)
(-0.00575016 0.000140097 0)
(-0.00594762 0.000134683 0)
(-0.0061369 0.000128851 0)
(-0.00631741 0.000122605 0)
(-0.00648855 0.00011595 0)
(-0.00664973 0.000108889 0)
(-0.00680039 0.000101427 0)
(-0.00693994 9.35691e-05 0)
(-0.00706784 8.53228e-05 0)
(-0.00718352 7.66962e-05 0)
(-0.00728648 6.76996e-05 0)
(-0.00737618 5.8346e-05 0)
(-0.00745216 4.8651e-05 0)
(-0.00751393 3.86336e-05 0)
(-0.00756108 2.83162e-05 0)
(-0.00759319 1.77236e-05 0)
(-0.00760992 6.88406e-06 0)
(-0.00761094 -4.17e-06 0)
(-0.007596 -1.54025e-05 0)
(-0.00756488 -2.67731e-05 0)
(-0.00751744 -3.82371e-05 0)
(-0.00745359 -4.97471e-05 0)
(-0.00737331 -6.1252e-05 0)
(-0.00727667 -7.2697e-05 0)
(-0.00716381 -8.40248e-05 0)
(-0.00703496 -9.51747e-05 0)
(-0.00689041 -0.000106084 0)
(-0.00673058 -0.000116686 0)
(-0.00655595 -0.000126915 0)
(-0.00636712 -0.000136704 0)
(-0.00616476 -0.000145983 0)
(-0.00594965 -0.000154685 0)
(-0.00572266 -0.000162742 0)
(-0.00548476 -0.00017009 0)
(-0.00523699 -0.000176663 0)
(-0.0049805 -0.000182401 0)
(-0.0047165 -0.000187246 0)
(-0.00444631 -0.000191146 0)
(-0.00417128 -0.000194051 0)
(-0.00389284 -0.000195919 0)
(-0.00361248 -0.000196712 0)
(-0.00333174 -0.000196398 0)
(-0.00305219 -0.000194953 0)
(-0.00277543 -0.000192361 0)
(-0.00250306 -0.000188611 0)
(-0.00223672 -0.000183701 0)
(-0.00197801 -0.000177637 0)
(-0.00172855 -0.000170434 0)
(-0.00148989 -0.000162114 0)
(-0.00126357 -0.000152709 0)
(-0.00105105 -0.00014226 0)
(-0.000853733 -0.000130818 0)
(-0.000672925 -0.000118447 0)
(-0.000509824 -0.000105224 0)
(-0.000365492 -9.12435e-05 0)
(-0.00024083 -7.66243e-05 0)
(-0.000136529 -6.15161e-05 0)
(-5.30215e-05 -4.61157e-05 0)
(9.59542e-06 -3.06885e-05 0)
(5.16702e-05 -1.56074e-05 0)
(7.41545e-05 -1.41327e-06 0)
(7.88238e-05 1.10902e-05 0)
(6.85257e-05 2.06954e-05 0)
(4.75704e-05 2.55772e-05 0)
(2.30498e-05 2.30901e-05 0)
(5.51309e-06 1.05754e-05 0)
(5.43346e-06 -2.35383e-05 0)
(1.6522e-05 -3.46078e-05 0)
(2.09273e-05 -2.12135e-05 0)
(7.38394e-06 7.09077e-06 0)
(-3.1214e-05 4.39125e-05 0)
(-9.87076e-05 8.4942e-05 0)
(-0.000196975 0.000127359 0)
(-0.000326502 0.000169332 0)
(-0.000486765 0.000209706 0)
(-0.000676543 0.00024777 0)
(-0.000894159 0.000283104 0)
(-0.00113765 0.000315481 0)
(-0.00140486 0.000344806 0)
(-0.00169359 0.000371074 0)
(-0.00200158 0.000394333 0)
(-0.00232663 0.000414672 0)
(-0.00266656 0.000432209 0)
(-0.00301928 0.000447073 0)
(-0.00338276 0.000459396 0)
(-0.00375509 0.000469315 0)
(-0.00413444 0.000476965 0)
(-0.00451906 0.000482476 0)
(-0.00490731 0.00048597 0)
(-0.00529761 0.000487561 0)
(-0.00568849 0.000487352 0)
(-0.00607853 0.000485438 0)
(-0.0064664 0.000481905 0)
(-0.00685081 0.000476827 0)
(-0.00723054 0.000470272 0)
(-0.0076044 0.000462295 0)
(-0.00797126 0.000452945 0)
(-0.00833002 0.000442262 0)
(-0.00867962 0.000430282 0)
(-0.009019 0.000417031 0)
(-0.00934714 0.000402535 0)
(-0.00966306 0.000386813 0)
(-0.00996575 0.000369881 0)
(-0.0102543 0.000351753 0)
(-0.0105276 0.000332446 0)
(-0.0107849 0.000311974 0)
(-0.0110253 0.000290355 0)
(-0.0112477 0.000267609 0)
(-0.0114513 0.000243758 0)
(-0.0116353 0.00021883 0)
(-0.0117987 0.000192858 0)
(-0.011941 0.000165884 0)
(-0.0120611 0.000137955 0)
(-0.0121585 0.000109127 0)
(-0.0122325 7.9465e-05 0)
(-0.0122824 4.90438e-05 0)
(-0.0123077 1.79463e-05 0)
(-0.012308 -1.37333e-05 0)
(-0.0122827 -4.58903e-05 0)
(-0.0122317 -7.84098e-05 0)
(-0.0121547 -0.000111166 0)
(-0.0120517 -0.000144023 0)
(-0.0119225 -0.000176836 0)
(-0.0117673 -0.00020945 0)
(-0.0115864 -0.000241703 0)
(-0.0113801 -0.000273423 0)
(-0.011149 -0.000304435 0)
(-0.0108937 -0.000334554 0)
(-0.0106149 -0.000363594 0)
(-0.0103137 -0.000391366 0)
(-0.00999116 -0.00041768 0)
(-0.00964845 -0.000442345 0)
(-0.00928699 -0.000465175 0)
(-0.00890828 -0.000485987 0)
(-0.00851401 -0.000504604 0)
(-0.00810596 -0.000520857 0)
(-0.00768606 -0.000534587 0)
(-0.00725634 -0.000545646 0)
(-0.00681896 -0.000553899 0)
(-0.00637617 -0.000559229 0)
(-0.00593028 -0.000561533 0)
(-0.0054837 -0.000560726 0)
(-0.00503889 -0.000556742 0)
(-0.00459834 -0.000549536 0)
(-0.00416458 -0.000539086 0)
(-0.00374012 -0.000525389 0)
(-0.00332749 -0.000508469 0)
(-0.00292916 -0.00048837 0)
(-0.00254757 -0.000465166 0)
(-0.00218506 -0.000438956 0)
(-0.00184389 -0.000409869 0)
(-0.0015262 -0.000378066 0)
(-0.00123396 -0.000343743 0)
(-0.000968962 -0.000307142 0)
(-0.000732774 -0.000268561 0)
(-0.000526681 -0.000228365 0)
(-0.000351629 -0.000187016 0)
(-0.000208141 -0.000145102 0)
(-9.62146e-05 -0.000103396 0)
(-1.5174e-05 -6.29338e-05 0)
(3.65161e-05 -2.51273e-05 0)
(6.14959e-05 8.06614e-06 0)
(6.37414e-05 3.39282e-05 0)
(4.88794e-05 4.87379e-05 0)
(2.5568e-05 4.7594e-05 0)
(6.57362e-06 2.4734e-05 0)
(3.66097e-06 -3.13059e-05 0)
(6.18588e-06 -3.81058e-05 0)
(-7.09329e-06 -7.6301e-06 0)
(-4.63693e-05 4.63103e-05 0)
(-0.000118532 0.000114284 0)
(-0.00022766 0.00018964 0)
(-0.000375859 0.000267743 0)
(-0.000563719 0.000345434 0)
(-0.000790687 0.000420609 0)
(-0.00105538 0.000491888 0)
(-0.00135583 0.000558405 0)
(-0.00168969 0.000619656 0)
(-0.00205433 0.000675381 0)
(-0.00244702 0.000725495 0)
(-0.00286494 0.000770036 0)
(-0.00330527 0.000809121 0)
(-0.00376524 0.000842926 0)
(-0.00424213 0.000871662 0)
(-0.00473332 0.000895554 0)
(-0.00523629 0.00091484 0)
(-0.00574862 0.000929756 0)
(-0.00626801 0.000940534 0)
(-0.00679224 0.000947398 0)
(-0.00731923 0.000950554 0)
(-0.00784698 0.000950195 0)
(-0.00837359 0.000946497 0)
(-0.00889724 0.000939621 0)
(-0.00941619 0.000929709 0)
(-0.00992877 0.000916888 0)
(-0.0104334 0.000901267 0)
(-0.0109285 0.00088294 0)
(-0.0114125 0.000861989 0)
(-0.0118841 0.000838481 0)
(-0.0123418 0.000812476 0)
(-0.0127843 0.000784024 0)
(-0.01321 0.000753167 0)
(-0.0136178 0.000719941 0)
(-0.0140063 0.00068438 0)
(-0.0143743 0.000646519 0)
(-0.0147204 0.000606393 0)
(-0.0150434 0.00056404 0)
(-0.0153421 0.000519504 0)
(-0.0156154 0.000472834 0)
(-0.015862 0.000424089 0)
(-0.016081 0.00037334 0)
(-0.0162711 0.000320669 0)
(-0.0164315 0.000266174 0)
(-0.0165611 0.000209967 0)
(-0.0166591 0.000152176 0)
(-0.0167247 9.29495e-05 0)
(-0.0167572 3.24513e-05 0)
(-0.016756 -2.91341e-05 0)
(-0.0167205 -9.16027e-05 0)
(-0.0166504 -0.000154731 0)
(-0.0165454 -0.000218275 0)
(-0.0164054 -0.000281974 0)
(-0.0162305 -0.000345547 0)
(-0.0160208 -0.000408697 0)
(-0.0157766 -0.000471111 0)
(-0.0154985 -0.000532462 0)
(-0.0151872 -0.00059241 0)
(-0.0148436 -0.000650606 0)
(-0.0144687 -0.000706694 0)
(-0.0140639 -0.000760312 0)
(-0.0136305 -0.000811098 0)
(-0.0131703 -0.000858691 0)
(-0.0126851 -0.000902735 0)
(-0.0121768 -0.000942882 0)
(-0.0116479 -0.000978796 0)
(-0.0111005 -0.00101016 0)
(-0.0105373 -0.00103667 0)
(-0.00996094 -0.00105804 0)
(-0.00937433 -0.00107403 0)
(-0.0087804 -0.0010844 0)
(-0.00818224 -0.00108897 0)
(-0.00758302 -0.00108759 0)
(-0.00698598 -0.00108011 0)
(-0.0063944 -0.00106648 0)
(-0.0058116 -0.00104664 0)
(-0.0052409 -0.00102061 0)
(-0.0046856 -0.00098843 0)
(-0.00414896 -0.000950202 0)
(-0.00363413 -0.000906076 0)
(-0.00314419 -0.000856256 0)
(-0.00268206 -0.000801007 0)
(-0.0022505 -0.000740657 0)
(-0.00185204 -0.000675609 0)
(-0.00148895 -0.000606355 0)
(-0.0011632 -0.000533494 0)
(-0.000876371 -0.000457763 0)
(-0.000629584 -0.00038007 0)
(-0.000423416 -0.000301564 0)
(-0.000257767 -0.000223708 0)
(-0.000131715 -0.000148399 0)
(-4.33282e-05 -7.81298e-05 0)
(1.05594e-05 -1.62017e-05 0)
(3.455e-05 3.30036e-05 0)
(3.49442e-05 6.37643e-05 0)
(2.09802e-05 6.87696e-05 0)
(5.90821e-06 3.86092e-05 0)
(1.14974e-06 -3.25115e-05 0)
(-7.83139e-06 -2.50253e-05 0)
(-4.38763e-05 3.10966e-05 0)
(-0.000114666 0.000118557 0)
(-0.00022604 0.000225315 0)
(-0.000381838 0.000342544 0)
(-0.000584018 0.000463867 0)
(-0.00083305 0.000584778 0)
(-0.00112825 0.000702148 0)
(-0.00146807 0.000813847 0)
(-0.00185028 0.000918476 0)
(-0.00227224 0.00101517 0)
(-0.00273095 0.00110344 0)
(-0.00322325 0.00118307 0)
(-0.00374588 0.00125405 0)
(-0.00429553 0.00131651 0)
(-0.00486891 0.00137067 0)
(-0.0054628 0.00141681 0)
(-0.00607407 0.00145525 0)
(-0.00669966 0.00148634 0)
(-0.00733666 0.00151043 0)
(-0.00798224 0.00152786 0)
(-0.00863373 0.00153898 0)
(-0.00928854 0.00154409 0)
(-0.00994422 0.00154349 0)
(-0.0105984 0.00153747 0)
(-0.0112489 0.00152626 0)
(-0.0118934 0.0015101 0)
(-0.01253 0.00148919 0)
(-0.0131565 0.00146369 0)
(-0.0137712 0.00143377 0)
(-0.0143721 0.00139955 0)
(-0.0149573 0.00136115 0)
(-0.0155252 0.00131867 0)
(-0.0160739 0.0012722 0)
(-0.0166018 0.00122179 0)
(-0.0171073 0.00116754 0)
(-0.0175886 0.00110948 0)
(-0.0180443 0.0010477 0)
(-0.0184727 0.000982241 0)
(-0.0188723 0.000913183 0)
(-0.0192416 0.000840601 0)
(-0.0195792 0.000764582 0)
(-0.0198837 0.000685229 0)
(-0.0201536 0.000602662 0)
(-0.0203878 0.000517022 0)
(-0.0205849 0.00042847 0)
(-0.0207439 0.000337193 0)
(-0.0208637 0.000243404 0)
(-0.0209433 0.000147343 0)
(-0.0209819 4.92821e-05 0)
(-0.0209787 -5.04799e-05 0)
(-0.0209332 -0.000151612 0)
(-0.0208449 -0.000253752 0)
(-0.0207136 -0.000356507 0)
(-0.020539 -0.000459456 0)
(-0.0203213 -0.000562148 0)
(-0.0200606 -0.000664106 0)
(-0.0197576 -0.000764828 0)
(-0.0194128 -0.000863791 0)
(-0.0190271 -0.000960452 0)
(-0.0186017 -0.00105425 0)
(-0.0181378 -0.00114463 0)
(-0.017637 -0.001231 0)
(-0.0171012 -0.00131279 0)
(-0.0165324 -0.00138943 0)
(-0.0159328 -0.00146035 0)
(-0.015305 -0.00152499 0)
(-0.0146516 -0.00158283 0)
(-0.0139755 -0.00163336 0)
(-0.01328 -0.0016761 0)
(-0.0125682 -0.00171061 0)
(-0.0118437 -0.00173649 0)
(-0.0111101 -0.00175338 0)
(-0.0103711 -0.00176099 0)
(-0.00963055 -0.00175907 0)
(-0.00889242 -0.00174743 0)
(-0.0081607 -0.00172595 0)
(-0.00743941 -0.00169458 0)
(-0.00673255 -0.00165333 0)
(-0.00604413 -0.0016023 0)
(-0.00537805 -0.00154165 0)
(-0.00473815 -0.00147165 0)
(-0.0041281 -0.00139265 0)
(-0.00355141 -0.00130507 0)
(-0.00301135 -0.00120948 0)
(-0.00251093 -0.00110655 0)
(-0.00205283 -0.000997101 0)
(-0.00163934 -0.000882116 0)
(-0.00127229 -0.0007628 0)
(-0.000952945 -0.000640623 0)
(-0.000681939 -0.000517403 0)
(-0.000459124 -0.000395412 0)
(-0.00028344 -0.000277517 0)
(-0.000152745 -0.000167374 0)
(-6.36298e-05 -6.9673e-05 0)
(-1.12336e-05 9.55697e-06 0)
(1.09733e-05 6.26509e-05 0)
(1.20648e-05 7.99607e-05 0)
(4.3371e-06 4.86652e-05 0)
(-1.62142e-06 -2.57113e-05 0)
(-2.36157e-05 7.79164e-06 0)
(-8.54371e-05 9.91064e-05 0)
(-0.000191396 0.000228393 0)
(-0.000345742 0.000381469 0)
(-0.000551692 0.00054765 0)
(-0.00081076 0.000718992 0)
(-0.00112308 0.000889713 0)
(-0.00148771 0.00105567 0)
(-0.00190286 0.00121397 0)
(-0.00236605 0.00136263 0)
(-0.00287435 0.00150037 0)
(-0.00342446 0.00162645 0)
(-0.00401286 0.00174047 0)
(-0.00463592 0.00184235 0)
(-0.00528991 0.00193219 0)
(-0.00597114 0.00201024 0)
(-0.00667595 0.00207686 0)
(-0.00740076 0.00213245 0)
(-0.00814207 0.00217746 0)
(-0.00889652 0.00221237 0)
(-0.00966084 0.00223764 0)
(-0.0104319 0.00225373 0)
(-0.0112068 0.00226107 0)
(-0.0119825 0.00226009 0)
(-0.0127563 0.00225116 0)
(-0.0135255 0.00223463 0)
(-0.0142877 0.00221084 0)
(-0.0150403 0.00218005 0)
(-0.015781 0.00214252 0)
(-0.0165075 0.00209848 0)
(-0.0172176 0.00204813 0)
(-0.017909 0.00199162 0)
(-0.0185798 0.00192911 0)
(-0.0192278 0.00186072 0)
(-0.019851 0.00178657 0)
(-0.0204476 0.00170677 0)
(-0.0210154 0.00162141 0)
(-0.0215528 0.00153059 0)
(-0.0220578 0.00143442 0)
(-0.0225286 0.00133299 0)
(-0.0229635 0.00122643 0)
(-0.0233608 0.00111489 0)
(-0.0237188 0.000998507 0)
(-0.024036 0.000877478 0)
(-0.0243109 0.000752009 0)
(-0.024542 0.000622346 0)
(-0.024728 0.000488766 0)
(-0.0248677 0.000351585 0)
(-0.0249601 0.000211159 0)
(-0.025004 6.78846e-05 0)
(-0.0249987 -7.77974e-05 0)
(-0.0249436 -0.000225403 0)
(-0.0248381 -0.000374405 0)
(-0.0246819 -0.000524232 0)
(-0.0244749 -0.000674272 0)
(-0.0242173 -0.000823871 0)
(-0.0239092 -0.000972338 0)
(-0.0235514 -0.00111895 0)
(-0.0231445 -0.00126295 0)
(-0.0226897 -0.00140355 0)
(-0.0221882 -0.00153995 0)
(-0.0216416 -0.00167134 0)
(-0.0210518 -0.00179689 0)
(-0.0204209 -0.00191576 0)
(-0.0197513 -0.00202713 0)
(-0.0190456 -0.0021302 0)
(-0.0183068 -0.00222416 0)
(-0.017538 -0.00230826 0)
(-0.0167425 -0.00238177 0)
(-0.0159241 -0.002444 0)
(-0.0150866 -0.00249434 0)
(-0.0142339 -0.00253219 0)
(-0.0133704 -0.00255708 0)
(-0.0125003 -0.00256855 0)
(-0.0116281 -0.00256628 0)
(-0.0107584 -0.00255 0)
(-0.00989576 -0.00251954 0)
(-0.00904486 -0.00247484 0)
(-0.00821033 -0.00241593 0)
(-0.00739678 -0.00234297 0)
(-0.00660871 -0.00225622 0)
(-0.00585052 -0.00215607 0)
(-0.00512643 -0.00204304 0)
(-0.00444044 -0.0019178 0)
(-0.00379629 -0.00178117 0)
(-0.0031974 -0.00163416 0)
(-0.00264679 -0.00147797 0)
(-0.00214705 -0.00131406 0)
(-0.00170021 -0.00114418 0)
(-0.00130771 -0.000970435 0)
(-0.000970242 -0.000795394 0)
(-0.000687696 -0.000622208 0)
(-0.000458982 -0.000454767 0)
(-0.000281919 -0.000297911 0)
(-0.000153081 -0.000157696 0)
(-6.76331e-05 -4.17159e-05 0)
(-1.91493e-05 4.0567e-05 0)
(7.22671e-07 7.74106e-05 0)
(2.34377e-06 5.32241e-05 0)
(-4.41764e-06 -1.04461e-05 0)
(-4.00461e-05 6.19388e-05 0)
(-0.000129182 0.000198805 0)
(-0.000272391 0.000378623 0)
(-0.000471985 0.000585606 0)
(-0.000730292 0.000807576 0)
(-0.00104815 0.00103525 0)
(-0.00142516 0.00126172 0)
(-0.00186 0.0014819 0)
(-0.00235053 0.00169216 0)
(-0.00289401 0.00188993 0)
(-0.0034872 0.00207353 0)
(-0.00412651 0.0022419 0)
(-0.00480811 0.00239446 0)
(-0.00552803 0.00253103 0)
(-0.00628221 0.00265166 0)
(-0.00706659 0.00275663 0)
(-0.00787714 0.00284633 0)
(-0.00870989 0.00292127 0)
(-0.00956096 0.002982 0)
(-0.0104266 0.0030291 0)
(-0.0113032 0.00306316 0)
(-0.0121871 0.00308478 0)
(-0.0130752 0.00309451 0)
(-0.0139639 0.00309289 0)
(-0.0148503 0.00308043 0)
(-0.0157314 0.00305759 0)
(-0.0166041 0.00302478 0)
(-0.0174658 0.0029824 0)
(-0.0183136 0.00293077 0)
(-0.0191451 0.0028702 0)
(-0.0199576 0.00280095 0)
(-0.0207486 0.00272327 0)
(-0.0215159 0.00263734 0)
(-0.0222569 0.00254336 0)
(-0.0229694 0.00244148 0)
(-0.0236512 0.00233186 0)
(-0.0243001 0.00221464 0)
(-0.0249139 0.00208997 0)
(-0.0254905 0.00195799 0)
(-0.0260279 0.00181885 0)
(-0.0265241 0.00167274 0)
(-0.0269772 0.00151986 0)
(-0.0273852 0.00136042 0)
(-0.0277465 0.00119468 0)
(-0.0280593 0.00102295 0)
(-0.028322 0.000845569 0)
(-0.0285332 0.000662913 0)
(-0.0286914 0.000475424 0)
(-0.0287955 0.000283592 0)
(-0.0288444 8.79606e-05 0)
(-0.0288371 -0.000110866 0)
(-0.028773 -0.000312229 0)
(-0.0286514 -0.000515408 0)
(-0.028472 -0.000719627 0)
(-0.0282348 -0.000924055 0)
(-0.0279399 -0.00112781 0)
(-0.0275877 -0.00132995 0)
(-0.0271787 -0.00152949 0)
(-0.026714 -0.00172543 0)
(-0.0261947 -0.0019167 0)
(-0.0256224 -0.00210221 0)
(-0.0249989 -0.00228088 0)
(-0.0243262 -0.00245157 0)
(-0.0236067 -0.00261319 0)
(-0.0228432 -0.00276461 0)
(-0.0220386 -0.00290476 0)
(-0.0211963 -0.00303256 0)
(-0.0203198 -0.00314699 0)
(-0.0194129 -0.00324709 0)
(-0.0184798 -0.00333192 0)
(-0.0175248 -0.00340066 0)
(-0.0165523 -0.00345254 0)
(-0.0155672 -0.0034869 0)
(-0.0145742 -0.00350315 0)
(-0.0135785 -0.00350085 0)
(-0.0125852 -0.00347966 0)
(-0.0115994 -0.00343936 0)
(-0.0106263 -0.00337989 0)
(-0.00967116 -0.00330129 0)
(-0.00873911 -0.00320381 0)
(-0.00783518 -0.00308781 0)
(-0.00696428 -0.00295384 0)
(-0.00613111 -0.00280264 0)
(-0.00534012 -0.00263513 0)
(-0.00459546 -0.00245245 0)
(-0.00390092 -0.00225598 0)
(-0.00325984 -0.00204739 0)
(-0.00267506 -0.00182864 0)
(-0.00214886 -0.0016021 0)
(-0.00168282 -0.00137055 0)
(-0.00127778 -0.00113738 0)
(-0.000933698 -0.000906648 0)
(-0.000649589 -0.000683272 0)
(-0.000423372 -0.000473257 0)
(-0.000251785 -0.000283955 0)
(-0.000130242 -0.000124395 0)
(-5.26723e-05 -5.62017e-06 0)
(-1.18209e-05 5.88736e-05 0)
(1.93971e-07 5.1454e-05 0)
(-7.13818e-06 1.33609e-05 0)
(-5.6487e-05 0.000138086 0)
(-0.0001735 0.000331379 0)
(-0.000354901 0.000570769 0)
(-0.000600894 0.000839359 0)
(-0.000912741 0.00112384 0)
(-0.00129043 0.00141387 0)
(-0.00173289 0.00170158 0)
(-0.00223826 0.00198107 0)
(-0.00280403 0.00224801 0)
(-0.00342707 0.00249932 0)
(-0.00410385 0.0027329 0)
(-0.00483046 0.00294739 0)
(-0.00560279 0.00314202 0)
(-0.00641655 0.00331648 0)
(-0.00726739 0.00347078 0)
(-0.00815091 0.0036052 0)
(-0.00906277 0.00372018 0)
(-0.00999865 0.00381629 0)
(-0.0109544 0.0038942 0)
(-0.0119258 0.00395459 0)
(-0.0129089 0.0039982 0)
(-0.0139 0.00402572 0)
(-0.0148952 0.00403786 0)
(-0.0158909 0.00403528 0)
(-0.0168837 0.00401861 0)
(-0.0178703 0.00398842 0)
(-0.0188474 0.00394525 0)
(-0.0198119 0.00388959 0)
(-0.0207608 0.00382185 0)
(-0.0216912 0.00374244 0)
(-0.0226002 0.00365169 0)
(-0.0234851 0.0035499 0)
(-0.0243431 0.00343736 0)
(-0.0251717 0.00331429 0)
(-0.0259682 0.00318092 0)
(-0.0267302 0.00303746 0)
(-0.0274553 0.00288409 0)
(-0.028141 0.00272102 0)
(-0.0287849 0.00254844 0)
(-0.029385 0.00236659 0)
(-0.0299388 0.00217568 0)
(-0.0304443 0.001976 0)
(-0.0308994 0.00176785 0)
(-0.0313021 0.00155157 0)
(-0.0316507 0.00132756 0)
(-0.0319432 0.00109627 0)
(-0.0321781 0.000858203 0)
(-0.0323539 0.000613945 0)
(-0.0324692 0.000364131 0)
(-0.0325229 0.000109475 0)
(-0.0325139 -0.000149238 0)
(-0.0324415 -0.000411149 0)
(-0.0323051 -0.000675326 0)
(-0.0321043 -0.000940763 0)
(-0.031839 -0.00120638 0)
(-0.0315094 -0.00147104 0)
(-0.031116 -0.00173353 0)
(-0.0306595 -0.0019926 0)
(-0.0301408 -0.00224691 0)
(-0.0295614 -0.00249512 0)
(-0.028923 -0.00273583 0)
(-0.0282275 -0.00296762 0)
(-0.0274773 -0.00318907 0)
(-0.026675 -0.00339874 0)
(-0.0258236 -0.00359522 0)
(-0.0249264 -0.00377709 0)
(-0.0239871 -0.003943 0)
(-0.0230096 -0.00409164 0)
(-0.0219982 -0.00422177 0)
(-0.0209573 -0.0043322 0)
(-0.0198918 -0.00442187 0)
(-0.0188065 -0.00448981 0)
(-0.0177068 -0.00453515 0)
(-0.016598 -0.00455719 0)
(-0.0154855 -0.00455534 0)
(-0.0143752 -0.00452918 0)
(-0.0132726 -0.00447845 0)
(-0.0121834 -0.00440307 0)
(-0.0111135 -0.00430314 0)
(-0.0100683 -0.00417897 0)
(-0.00905353 -0.00403107 0)
(-0.00807443 -0.00386016 0)
(-0.00713618 -0.00366722 0)
(-0.00624364 -0.00345346 0)
(-0.00540135 -0.00322039 0)
(-0.00461342 -0.0029698 0)
(-0.0038835 -0.00270384 0)
(-0.00321472 -0.00242505 0)
(-0.00260956 -0.00213643 0)
(-0.00206982 -0.00184152 0)
(-0.00159649 -0.00154451 0)
(-0.00118973 -0.00125039 0)
(-0.000848701 -0.00096508 0)
(-0.000571566 -0.000695704 0)
(-0.00035537 -0.000450807 0)
(-0.000195932 -0.000240695 0)
(-8.77205e-05 -7.77492e-05 0)
(-2.4789e-05 2.31612e-05 0)
(-1.96503e-06 4.30143e-05 0)
(-9.74726e-06 4.55656e-05 0)
(-7.26033e-05 0.000236264 0)
(-0.00021742 0.000497158 0)
(-0.000437154 0.000805404 0)
(-0.000729868 0.00114343 0)
(-0.00109565 0.00149714 0)
(-0.00153351 0.0018554 0)
(-0.0020416 0.00220957 0)
(-0.00261745 0.00255307 0)
(-0.00325803 0.00288099 0)
(-0.00395984 0.00318978 0)
(-0.00471895 0.00347695 0)
(-0.00553117 0.00374087 0)
(-0.00639206 0.00398058 0)
(-0.00729705 0.00419565 0)
(-0.0082415 0.00438605 0)
(-0.00922073 0.00455203 0)
(-0.0102301 0.0046941 0)
(-0.011265 0.00481289 0)
(-0.0123208 0.00490915 0)
(-0.0133934 0.0049837 0)
(-0.0144782 0.00503737 0)
(-0.0155712 0.00507101 0)
(-0.0166683 0.00508546 0)
(-0.0177657 0.00508149 0)
(-0.0188596 0.00505987 0)
(-0.0199463 0.0050213 0)
(-0.0210223 0.00496643 0)
(-0.0220842 0.00489583 0)
(-0.0231288 0.00481006 0)
(-0.0241528 0.00470957 0)
(-0.0251531 0.00459482 0)
(-0.0261267 0.00446616 0)
(-0.0270706 0.00432395 0)
(-0.0279819 0.0041685 0)
(-0.0288579 0.00400008 0)
(-0.0296958 0.00381896 0)
(-0.0304929 0.0036254 0)
(-0.0312466 0.00341965 0)
(-0.0319544 0.00320199 0)
(-0.0326136 0.00297269 0)
(-0.0332221 0.00273207 0)
(-0.0337773 0.00248047 0)
(-0.034277 0.0022183 0)
(-0.0347192 0.00194598 0)
(-0.0351018 0.00166404 0)
(-0.0354228 0.00137305 0)
(-0.0356805 0.00107364 0)
(-0.0358732 0.00076656 0)
(-0.0359996 0.000452603 0)
(-0.0360583 0.000132673 0)
(-0.0360482 -0.000192246 0)
(-0.0359685 -0.000521075 0)
(-0.0358186 -0.000852646 0)
(-0.035598 -0.0011857 0)
(-0.0353068 -0.0015189 0)
(-0.0349451 -0.00185081 0)
(-0.0345134 -0.00217993 0)
(-0.0340125 -0.00250469 0)
(-0.0334436 -0.00282345 0)
(-0.032808 -0.00313451 0)
(-0.0321077 -0.00343616 0)
(-0.0313448 -0.00372662 0)
(-0.0305218 -0.00400413 0)
(-0.0296417 -0.0042669 0)
(-0.0287077 -0.00451318 0)
(-0.0277234 -0.00474123 0)
(-0.0266928 -0.00494935 0)
(-0.0256201 -0.00513594 0)
(-0.0245099 -0.00529944 0)
(-0.0233671 -0.0054384 0)
(-0.0221969 -0.00555151 0)
(-0.0210048 -0.00563755 0)
(-0.0197963 -0.00569548 0)
(-0.0185772 -0.00572442 0)
(-0.0173537 -0.00572364 0)
(-0.0161318 -0.00569266 0)
(-0.0149176 -0.00563114 0)
(-0.0137173 -0.00553902 0)
(-0.0125372 -0.00541644 0)
(-0.0113832 -0.00526379 0)
(-0.0102615 -0.00508174 0)
(-0.00917777 -0.00487122 0)
(-0.00813759 -0.00463345 0)
(-0.0071462 -0.00436999 0)
(-0.00620851 -0.0040827 0)
(-0.00532896 -0.00377385 0)
(-0.00451152 -0.0034461 0)
(-0.00375956 -0.0031026 0)
(-0.00307585 -0.00274701 0)
(-0.00246239 -0.00238362 0)
(-0.00192042 -0.00201747 0)
(-0.00145032 -0.00165443 0)
(-0.00105153 -0.00130142 0)
(-0.000722513 -0.000966583 0)
(-0.000460741 -0.000659561 0)
(-0.000262551 -0.000391763 0)
(-0.000123054 -0.000176663 0)
(-3.77035e-05 -3.01574e-05 0)
(-4.05505e-06 2.78751e-05 0)
(-1.22257e-05 8.59001e-05 0)
(-8.82125e-05 0.000356118 0)
(-0.000260366 0.000695899 0)
(-0.000518045 0.00108243 0)
(-0.000857208 0.00149783 0)
(-0.00127672 0.00192753 0)
(-0.00177456 0.00235982 0)
(-0.00234801 0.00278552 0)
(-0.0029939 0.00319751 0)
(-0.00370865 0.00359041 0)
(-0.00448829 0.00396026 0)
(-0.00532849 0.00430425 0)
(-0.00622472 0.00462051 0)
(-0.00717223 0.00490792 0)
(-0.00816614 0.00516594 0)
(-0.00920154 0.00539447 0)
(-0.0102735 0.00559379 0)
(-0.011377 0.00576442 0)
(-0.0125073 0.00590708 0)
(-0.0136595 0.00602262 0)
(-0.0148291 0.00611195 0)
(-0.0160113 0.00617604 0)
(-0.0172019 0.00621587 0)
(-0.0183964 0.00623239 0)
(-0.0195908 0.00622653 0)
(-0.020781 0.00619918 0)
(-0.021963 0.00615116 0)
(-0.0231332 0.00608323 0)
(-0.0242879 0.0059961 0)
(-0.0254234 0.00589041 0)
(-0.0265364 0.00576673 0)
(-0.0276235 0.00562557 0)
(-0.0286814 0.0054674 0)
(-0.029707 0.00529264 0)
(-0.0306971 0.00510167 0)
(-0.0316486 0.00489483 0)
(-0.0325587 0.00467247 0)
(-0.0334244 0.00443491 0)
(-0.0342429 0.00418246 0)
(-0.0350114 0.00391547 0)
(-0.0357272 0.00363429 0)
(-0.0363878 0.00333932 0)
(-0.0369905 0.003031 0)
(-0.0375331 0.00270981 0)
(-0.0380132 0.00237631 0)
(-0.0384285 0.00203113 0)
(-0.0387771 0.00167498 0)
(-0.039057 0.00130866 0)
(-0.0392665 0.000933052 0)
(-0.039404 0.000549156 0)
(-0.0394682 0.000158068 0)
(-0.0394578 -0.000239006 0)
(-0.039372 -0.000640754 0)
(-0.0392101 -0.00104575 0)
(-0.0389717 -0.00145247 0)
(-0.0386568 -0.00185928 0)
(-0.0382654 -0.00226445 0)
(-0.0377982 -0.00266615 0)
(-0.037256 -0.00306247 0)
(-0.0366401 -0.00345143 0)
(-0.035952 -0.00383099 0)
(-0.0351936 -0.00419904 0)
(-0.0343674 -0.00455347 0)
(-0.033476 -0.00489213 0)
(-0.0325226 -0.00521286 0)
(-0.0315106 -0.00551353 0)
(-0.0304438 -0.00579205 0)
(-0.0293266 -0.00604639 0)
(-0.0281635 -0.00627457 0)
(-0.0269595 -0.00647475 0)
(-0.0257198 -0.00664517 0)
(-0.0244499 -0.00678423 0)
(-0.0231557 -0.00689048 0)
(-0.0218431 -0.00696268 0)
(-0.0205186 -0.00699975 0)
(-0.0191884 -0.00700084 0)
(-0.0178592 -0.00696536 0)
(-0.0165375 -0.00689294 0)
(-0.01523 -0.0067835 0)
(-0.0139433 -0.00663723 0)
(-0.012684 -0.00645464 0)
(-0.0114583 -0.00623655 0)
(-0.0102727 -0.0059841 0)
(-0.00913294 -0.00569881 0)
(-0.00804473 -0.00538256 0)
(-0.00701331 -0.00503764 0)
(-0.00604347 -0.0046668 0)
(-0.00513948 -0.00427324 0)
(-0.00430501 -0.00386072 0)
(-0.00354309 -0.00343361 0)
(-0.00285602 -0.00299694 0)
(-0.00224531 -0.00255657 0)
(-0.00171161 -0.00211926 0)
(-0.0012547 -0.00169287 0)
(-0.000873443 -0.00128649 0)
(-0.000565792 -0.000910736 0)
(-0.000328671 -0.000577961 0)
(-0.000157886 -0.00030251 0)
(-5.02824e-05 -0.000101015 0)
(-6.03722e-06 6.18862e-06 0)
(-1.45692e-05 0.000134048 0)
(-0.000103231 0.000497082 0)
(-0.000302022 0.000926995 0)
(-0.000596917 0.00140129 0)
(-0.000981848 0.00190207 0)
(-0.00145446 0.00241455 0)
(-0.00201167 0.00292668 0)
(-0.00264984 0.0034289 0)
(-0.00336505 0.00391372 0)
(-0.00415311 0.00437538 0)
(-0.00500952 0.00480963 0)
(-0.00592955 0.0052134 0)
(-0.00690826 0.00558462 0)
(-0.00794058 0.00592202 0)
(-0.00902135 0.00622499 0)
(-0.0101453 0.00649339 0)
(-0.0113074 0.00672752 0)
(-0.0125022 0.00692793 0)
(-0.0137248 0.00709542 0)
(-0.01497 0.00723093 0)
(-0.016233 0.00733548 0)
(-0.017509 0.00741018 0)
(-0.0187933 0.00745611 0)
(-0.0200813 0.00747438 0)
(-0.0213686 0.00746605 0)
(-0.022651 0.00743213 0)
(-0.0239244 0.00737358 0)
(-0.0251846 0.00729128 0)
(-0.0264279 0.00718604 0)
(-0.0276504 0.00705862 0)
(-0.0288485 0.00690968 0)
(-0.0300185 0.00673984 0)
(-0.031157 0.00654964 0)
(-0.0322606 0.00633959 0)
(-0.033326 0.00611014 0)
(-0.0343498 0.00586172 0)
(-0.035329 0.00559473 0)
(-0.0362604 0.00530957 0)
(-0.037141 0.00500663 0)
(-0.0379678 0.00468632 0)
(-0.0387381 0.00434909 0)
(-0.0394489 0.00399542 0)
(-0.0400976 0.00362584 0)
(-0.0406817 0.00324095 0)
(-0.0411986 0.00284142 0)
(-0.041646 0.00242801 0)
(-0.0420217 0.00200157 0)
(-0.0423237 0.00156306 0)
(-0.0425501 0.00111356 0)
(-0.0426992 0.000654252 0)
(-0.0427696 0.000186447 0)
(-0.04276 -0.000288415 0)
(-0.0426694 -0.000768768 0)
(-0.0424972 -0.00125292 0)
(-0.0422429 -0.00173905 0)
(-0.0419064 -0.00222521 0)
(-0.0414879 -0.00270935 0)
(-0.0409879 -0.00318931 0)
(-0.0404074 -0.00366281 0)
(-0.0397476 -0.0041275 0)