/*--------------------------------*- C++ -*----------------------------------*\
| =========                 |                                                 |
| \\      /  F ield         | OpenFOAM: The Open Source CFD Toolbox           |
|  \\    /   O peration     | Version:  2512                                  |
|   \\  /    A nd           | Website:  www.openfoam.com                      |
|    \\/     M anipulation  |                                                 |
\*---------------------------------------------------------------------------*/
FoamFile
{
    version     2.0;
    format      ascii;
    arch        "LSB;label=32;scalar=64";
    class       surfaceScalarField;
    location    "0.28";
    object      phi;
}
// * * * * * * * * * * * * * * * * * * * * * * * * * * * * * * * * * * * * * //

dimensions      [0 3 -1 0 0 0 0];

oriented        oriented;

internalField   nonuniform List<scalar> 
19800
(
6.53616e-11
-6.53506e-11
1.90004e-10
-1.24653e-10
3.01385e-10
-1.11365e-10
3.56494e-10
-5.51115e-11
3.34813e-10
2.16867e-11
2.27882e-10
1.06925e-10
3.39048e-11
1.93982e-10
-2.45045e-10
2.78939e-10
-6.0478e-10
3.59736e-10
-1.03994e-09
4.35162e-10
-1.54456e-09
5.04612e-10
-2.11238e-09
5.67833e-10
-2.73715e-09
6.24765e-10
-3.41268e-09
6.75539e-10
-4.13304e-09
7.20368e-10
-4.89255e-09
7.59509e-10
-5.6858e-09
7.93251e-10
-6.50768e-09
8.21875e-10
-7.35335e-09
8.45669e-10
-8.2183e-09
8.64945e-10
-9.09829e-09
8.79995e-10
-9.98936e-09
8.91058e-10
-1.08877e-08
8.98376e-10
-1.17899e-08
9.0218e-10
-1.26926e-08
9.02661e-10
-1.35926e-08
8.9999e-10
-1.44869e-08
8.94325e-10
-1.53727e-08
8.858e-10
-1.62472e-08
8.7452e-10
-1.71078e-08
8.60578e-10
-1.79519e-08
8.44054e-10
-1.87769e-08
8.25008e-10
-1.95804e-08
8.03492e-10
-2.03599e-08
7.79531e-10
-2.1113e-08
7.53143e-10
-2.18374e-08
7.24354e-10
-2.25306e-08
6.93181e-10
-2.31902e-08
6.59638e-10
-2.38139e-08
6.23734e-10
-2.43994e-08
5.85485e-10
-2.49443e-08
5.44914e-10
-2.54464e-08
5.02051e-10
-2.59033e-08
4.56932e-10
-2.63129e-08
4.09601e-10
-2.6673e-08
3.60121e-10
-2.69816e-08
3.08579e-10
-2.72367e-08
2.55062e-10
-2.74364e-08
1.99679e-10
-2.75789e-08
1.42564e-10
-2.76628e-08
8.38815e-11
-2.76866e-08
2.38173e-11
-2.76492e-08
-3.74329e-11
-2.75495e-08
-9.9655e-11
-2.73869e-08
-1.626e-10
-2.71609e-08
-2.25997e-10
-2.68714e-08
-2.89555e-10
-2.65184e-08
-3.52964e-10
-2.61025e-08
-4.15899e-10
-2.56245e-08
-4.78017e-10
-2.50856e-08
-5.38949e-10
-2.44873e-08
-5.98315e-10
-2.38315e-08
-6.55738e-10
-2.31207e-08
-7.10835e-10
-2.23575e-08
-7.63217e-10
-2.1545e-08
-8.12493e-10
-2.06867e-08
-8.58276e-10
-1.97865e-08
-9.00185e-10
-1.88487e-08
-9.37853e-10
-1.78777e-08
-9.70939e-10
-1.68786e-08
-9.99115e-10
-1.58565e-08
-1.02208e-09
-1.48169e-08
-1.03957e-09
-1.37656e-08
-1.05134e-09
-1.27084e-08
-1.05718e-09
-1.16515e-08
-1.05693e-09
-1.0601e-08
-1.05046e-09
-9.56335e-09
-1.0377e-09
-8.54476e-09
-1.01859e-09
-7.55161e-09
-9.93155e-10
-6.59015e-09
-9.61452e-10
-5.66656e-09
-9.23591e-10
-4.78683e-09
-8.79728e-10
-3.95677e-09
-8.30067e-10
-3.1819e-09
-7.74866e-10
-2.46746e-09
-7.14439e-10
-1.81831e-09
-6.49153e-10
-1.23887e-09
-5.79443e-10
-7.33048e-10
-5.0582e-10
-3.04156e-10
-4.28895e-10
4.52399e-11
-3.49401e-10
3.13482e-10
-2.68247e-10
5.00049e-10
-1.86569e-10
6.05948e-10
-1.05899e-10
6.34297e-10
-2.83508e-11
5.91263e-10
4.30298e-11
4.87515e-10
1.03744e-10
3.40555e-10
1.46962e-10
1.78481e-10
1.62076e-10
4.60199e-11
1.32459e-10
4.60191e-11
1.24207e-10
-1.89565e-10
3.00205e-10
-3.0065e-10
4.10974e-10
-2.22139e-10
3.81173e-10
-2.53051e-11
1.65216e-10
2.37635e-10
-2.60797e-10
5.3295e-10
-9.05876e-10
8.39054e-10
-1.76928e-09
1.14236e-09
-2.84392e-09
1.43437e-09
-4.11869e-09
1.70993e-09
-5.58008e-09
1.966e-09
-7.21321e-09
2.20095e-09
-9.00255e-09
2.4141e-09
-1.09324e-08
2.6054e-09
-1.29873e-08
2.77524e-09
-1.51521e-08
2.9243e-09
-1.74122e-08
3.05339e-09
-1.97538e-08
3.16341e-09
-2.21634e-08
3.25534e-09
-2.46286e-08
3.33015e-09
-2.71374e-08
3.3888e-09
-2.96785e-08
3.43217e-09
-3.22413e-08
3.46114e-09
-3.48156e-08
3.47647e-09
-3.73918e-08
3.47888e-09
-3.99608e-08
3.46901e-09
-4.25139e-08
3.44743e-09
-4.50427e-08
3.41462e-09
-4.75392e-08
3.37102e-09
-4.99956e-08
3.31697e-09
-5.24043e-08
3.25278e-09
-5.4758e-08
3.17869e-09
-5.70494e-08
3.09489e-09
-5.92714e-08
3.00153e-09
-6.1417e-08
2.89874e-09
-6.34793e-08
2.78663e-09
-6.54514e-08
2.66526e-09
-6.73265e-08
2.53473e-09
-6.90978e-08
2.3951e-09
-7.07588e-08
2.24646e-09
-7.23028e-08
2.08893e-09
-7.37234e-08
1.92265e-09
-7.50143e-08
1.74778e-09
-7.61692e-08
1.56455e-09
-7.71823e-08
1.37322e-09
-7.80479e-08
1.17413e-09
-7.87605e-08
9.67652e-10
-7.9315e-08
7.54246e-10
-7.97069e-08
5.3445e-10
-7.99319e-08
3.08879e-10
-7.99863e-08
7.8227e-11
-7.9867e-08
-1.56728e-10
-7.95715e-08
-3.95136e-10
-7.90981e-08
-6.36057e-10
-7.84456e-08
-8.78458e-10
-7.7614e-08
-1.12124e-09
-7.66037e-08
-1.36323e-09
-7.54164e-08
-1.60318e-09
-7.40546e-08
-1.8398e-09
-7.25219e-08
-2.07172e-09
-7.08226e-08
-2.29754e-09
-6.89626e-08
-2.51582e-09
-6.69483e-08
-2.72513e-09
-6.47875e-08
-2.924e-09
-6.2489e-08
-3.11097e-09
-6.00627e-08
-3.28461e-09
-5.75193e-08
-3.44352e-09
-5.48708e-08
-3.58634e-09
-5.213e-08
-3.71179e-09
-4.93104e-08
-3.81866e-09
-4.64267e-08
-3.90585e-09
-4.34939e-08
-3.97234e-09
-4.0528e-08
-4.01726e-09
-3.75453e-08
-4.03985e-09
-3.45627e-08
-4.03952e-09
-3.15974e-08
-4.01581e-09
-2.86666e-08
-3.96845e-09
-2.57879e-08
-3.89731e-09
-2.29786e-08
-3.80245e-09
-2.02559e-08
-3.68414e-09
-1.76367e-08
-3.5428e-09
-1.51374e-08
-3.37907e-09
-1.27737e-08
-3.19378e-09
-1.05606e-08
-2.98796e-09
-8.51212e-09
-2.76288e-09
-6.64124e-09
-2.52004e-09
-4.95948e-09
-2.2612e-09
-3.47682e-09
-1.98848e-09
-2.20136e-09
-1.70436e-09
-1.13892e-09
-1.41185e-09
-2.92556e-10
-1.11462e-09
3.38159e-10
-8.17283e-10
7.58039e-10
-5.25774e-10
9.77625e-10
-2.47935e-10
1.01513e-09
5.52116e-12
8.98746e-10
2.20124e-10
6.70265e-10
3.7544e-10
3.88562e-10
4.43773e-10
1.31981e-10
3.89038e-10
1.78001e-10
1.10742e-10
-3.00291e-10
2.21747e-10
-4.11658e-10
1.99353e-10
-1.99734e-10
-4.41096e-11
2.18154e-10
-5.65254e-10
7.5879e-10
-1.39643e-09
1.36412e-09
-2.5518e-09
1.99442e-09
-4.03251e-09
2.62307e-09
-5.83058e-09
3.23245e-09
-7.9318e-09
3.81115e-09
-1.03178e-08
4.35203e-09
-1.29677e-08
4.85088e-09
-1.58592e-08
5.30559e-09
-1.89693e-08
5.71546e-09
-2.22748e-08
6.08077e-09
-2.5753e-08
6.40249e-09
-2.93816e-08
6.68201e-09
-3.31392e-08
6.921e-09
-3.70052e-08
7.12128e-09
-4.09597e-08
7.28472e-09
-4.49841e-08
7.41318e-09
-4.90604e-08
7.5085e-09
-5.31717e-08
7.57238e-09
-5.73017e-08
7.60643e-09
-6.14349e-08
7.61213e-09
-6.55567e-08
7.59081e-09
-6.96529e-08
7.54366e-09
-7.371e-08
7.47172e-09
-7.77149e-08
7.3759e-09
-8.1655e-08
7.25699e-09
-8.55178e-08
7.11564e-09
-8.92915e-08
6.95238e-09
-9.29643e-08
6.76767e-09
-9.65246e-08
6.56186e-09
-9.99611e-08
6.33526e-09
-1.03263e-07
6.08813e-09
-1.06418e-07
5.82069e-09
-1.09416e-07
5.53316e-09
-1.12247e-07
5.22575e-09
-1.14899e-07
4.89871e-09
-1.17363e-07
4.55231e-09
-1.19627e-07
4.18692e-09
-1.21682e-07
3.80294e-09
-1.23519e-07
3.40091e-09
-1.25127e-07
2.98145e-09
-1.26498e-07
2.5453e-09
-1.27624e-07
2.09335e-09
-1.28496e-07
1.62663e-09
-1.29108e-07
1.14633e-09
-1.29453e-07
6.53814e-10
-1.29525e-07
1.50608e-10
-1.2932e-07
-3.61592e-10
-1.28835e-07
-8.80912e-10
-1.28065e-07
-1.40531e-09
-1.27011e-07
-1.93255e-09
-1.25672e-07
-2.46026e-09
-1.2405e-07
-2.9859e-09
-1.22146e-07
-3.5068e-09
-1.19966e-07
-4.02014e-09
-1.17514e-07
-4.52302e-09
-1.14799e-07
-5.01243e-09
-1.1183e-07
-5.48531e-09
-1.08616e-07
-5.93855e-09
-1.05171e-07
-6.36903e-09
-1.01509e-07
-6.77365e-09
-9.7644e-08
-7.14935e-09
-9.35944e-08
-7.49314e-09
-8.93786e-08
-7.80215e-09
-8.50167e-08
-8.07364e-09
-8.05303e-08
-8.30506e-09
-7.59421e-08
-8.49404e-09
-7.1276e-08
-8.63847e-09
-6.65568e-08
-8.73648e-09
-6.18102e-08
-8.78648e-09
-5.70625e-08
-8.78723e-09
-5.23405e-08
-8.73779e-09
-4.76713e-08
-8.63759e-09
-4.30822e-08
-8.48642e-09
-3.86002e-08
-8.28446e-09
-3.42521e-08
-8.0323e-09
-3.00639e-08
-7.73093e-09
-2.60612e-08
-7.38179e-09
-2.22683e-08
-6.98673e-09
-1.87081e-08
-6.5481e-09
-1.54023e-08
-6.06874e-09
-1.23703e-08
-5.55202e-09
-9.62958e-09
-5.00194e-09
-7.19483e-09
-4.42323e-09
-5.0777e-09
-3.82149e-09
-3.28612e-09
-3.20343e-09
-1.82357e-09
-2.57717e-09
-6.88132e-10
-1.95273e-09
1.28798e-10
-1.3427e-09
6.44096e-10
-7.63235e-10
8.84912e-10
-2.35296e-10
8.91425e-10
2.13613e-10
7.19544e-10
5.4732e-10
4.44118e-10
7.19196e-10
1.61488e-10
6.71668e-10
3.3949e-10
5.62154e-11
-3.56509e-10
2.77415e-11
-3.83185e-10
-2.15629e-10
4.3634e-11
-7.6194e-10
7.64457e-10
-1.66966e-09
1.66652e-09
-2.97349e-09
2.66794e-09
-4.68943e-09
3.71036e-09
-6.81927e-09
4.7529e-09
-9.35424e-09
5.76742e-09
-1.2278e-08
6.73487e-09
-1.55687e-08
7.6428e-09
-1.92013e-08
8.48346e-09
-2.31482e-08
9.2525e-09
-2.73808e-08
9.94804e-09
-3.18699e-08
1.05699e-08
-3.65865e-08
1.11191e-08
-4.1502e-08
1.15975e-08
-4.65885e-08
1.20075e-08
-5.1819e-08
1.23518e-08
-5.71677e-08
1.26334e-08
-6.26096e-08
1.28551e-08
-6.8121e-08
1.30199e-08
-7.3679e-08
1.31304e-08
-7.9262e-08
1.31894e-08
-8.48491e-08
1.31992e-08
-9.04204e-08
1.31621e-08
-9.59567e-08
1.308e-08
-1.0144e-07
1.29546e-08
-1.06851e-07
1.27876e-08
-1.12174e-07
1.25802e-08
-1.17392e-07
1.23336e-08
-1.22489e-07
1.20488e-08
-1.27448e-07
1.17264e-08
-1.32253e-07
1.13673e-08
-1.3689e-07
1.09719e-08
-1.41342e-07
1.05409e-08
-1.45596e-07
1.00745e-08
-1.49636e-07
9.57324e-09
-1.53448e-07
9.03759e-09
-1.57017e-07
8.46801e-09
-1.6033e-07
7.86507e-09
-1.63373e-07
7.22943e-09
-1.66132e-07
6.56188e-09
-1.68594e-07
5.86339e-09
-1.70748e-07
5.13511e-09
-1.72581e-07
4.37837e-09
-1.74082e-07
3.59476e-09
-1.75242e-07
2.7861e-09
-1.7605e-07
1.95449e-09
-1.76498e-07
1.10231e-09
-1.7658e-07
2.32212e-10
-1.76289e-07
-6.5286e-10
-1.7562e-07
-1.54967e-09
-1.74571e-07
-2.45466e-09
-1.73139e-07
-3.36403e-09
-1.71326e-07
-4.2737e-09
-1.69132e-07
-5.17931e-09
-1.66563e-07
-6.07629e-09
-1.63623e-07
-6.95984e-09
-1.60321e-07
-7.82501e-09
-1.56667e-07
-8.66669e-09
-1.52673e-07
-9.47964e-09
-1.48352e-07
-1.02586e-08
-1.43723e-07
-1.09983e-08
-1.38803e-07
-1.16934e-08
-1.33614e-07
-1.23388e-08
-1.28178e-07
-1.29295e-08
-1.22519e-07
-1.34604e-08
-1.16666e-07
-1.39271e-08
-1.10646e-07
-1.43252e-08
-1.04489e-07
-1.46508e-08
-9.82272e-08
-1.49002e-08
-9.18933e-08
-1.50703e-08
-8.55213e-08
-1.51585e-08
-7.91458e-08
-1.51627e-08
-7.28022e-08
-1.50814e-08
-6.65262e-08
-1.49136e-08
-6.03537e-08
-1.4659e-08
-5.43201e-08
-1.4318e-08
-4.84608e-08
-1.38917e-08
-4.28099e-08
-1.33818e-08
-3.74007e-08
-1.2791e-08
-3.22649e-08
-1.21225e-08
-2.74326e-08
-1.13804e-08
-2.29315e-08
-1.05698e-08
-1.87869e-08
-9.69665e-09
-1.50209e-08
-8.76796e-09
-1.1652e-08
-7.79206e-09
-8.69479e-09
-6.77874e-09
-6.1586e-09
-5.73962e-09
-4.0471e-09
-4.68866e-09
-2.35705e-09
-3.64277e-09
-1.07696e-09
-2.62279e-09
-1.85503e-10
-1.6547e-09
3.5043e-10
-7.71227e-10
5.7797e-10
-1.39235e-11
5.60798e-10
5.64488e-10
3.81999e-10
8.97993e-10
1.47773e-10
9.05891e-10
4.87261e-10
-1.93338e-11
-3.37167e-10
-2.34366e-10
-1.68162e-10
-7.57963e-10
5.67239e-10
-1.66961e-09
1.67611e-09
-3.0231e-09
3.02e-09
-4.85074e-09
4.49559e-09
-7.16725e-09
6.02686e-09
-9.97327e-09
7.55893e-09
-1.32586e-08
9.05274e-09
-1.70047e-08
1.0481e-08
-2.11872e-08
1.18253e-08
-2.57774e-08
1.30736e-08
-3.07437e-08
1.42188e-08
-3.60529e-08
1.52573e-08
-4.16712e-08
1.61881e-08
-4.75642e-08
1.70121e-08
-5.36981e-08
1.77313e-08
-6.00396e-08
1.8349e-08
-6.65563e-08
1.88685e-08
-7.32169e-08
1.9294e-08
-7.99911e-08
1.96293e-08
-8.68499e-08
1.98787e-08
-9.37654e-08
2.00459e-08
-1.00711e-07
2.01348e-08
-1.0766e-07
2.01488e-08
-1.14589e-07
2.00911e-08
-1.21474e-07
1.99646e-08
-1.28291e-07
1.97719e-08
-1.35019e-07
1.95154e-08
-1.41636e-07
1.91969e-08
-1.4812e-07
1.88182e-08
-1.54452e-07
1.83808e-08
-1.60612e-07
1.7886e-08
-1.66579e-07
1.73347e-08
-1.72335e-07
1.6728e-08
-1.77861e-07
1.60665e-08
-1.83138e-07
1.53512e-08
-1.88147e-07
1.45827e-08
-1.92871e-07
1.37617e-08
-1.97293e-07
1.28892e-08
-2.01393e-07
1.1966e-08
-2.05157e-07
1.09932e-08
-2.08568e-07
9.97222e-09
-2.11609e-07
8.90449e-09
-2.14265e-07
7.79188e-09
-2.16524e-07
6.63648e-09
-2.1837e-07
5.44078e-09
-2.19791e-07
4.20762e-09
-2.20777e-07
2.94022e-09
-2.21317e-07
1.64224e-09
-2.21402e-07
3.17726e-10
-2.21026e-07
-1.02881e-09
-2.20184e-07
-2.39244e-09
-2.1887e-07
-3.7678e-09
-2.17085e-07
-5.1491e-09
-2.14829e-07
-6.53018e-09
-2.12104e-07
-7.90448e-09
-2.08915e-07
-9.26511e-09
-2.0527e-07
-1.06049e-08
-2.01179e-07
-1.19163e-08
-1.96654e-07
-1.31917e-08
-1.9171e-07
-1.44232e-08
-1.86366e-07
-1.56031e-08
-1.80641e-07
-1.67233e-08
-1.74558e-07
-1.77759e-08
-1.68144e-07
-1.87533e-08
-1.61425e-07
-1.96478e-08
-1.54433e-07
-2.04523e-08
-1.47201e-07
-2.11598e-08
-1.39762e-07
-2.17639e-08
-1.32154e-07
-2.22587e-08
-1.24416e-07
-2.26388e-08
-1.16586e-07
-2.28997e-08
-1.08707e-07
-2.30374e-08
-1.00821e-07
-2.30488e-08
-9.29712e-08
-2.29316e-08
-8.52001e-08
-2.26847e-08
-7.75515e-08
-2.23075e-08
-7.00687e-08
-2.18008e-08
-6.27941e-08
-2.11663e-08
-5.57692e-08
-2.04067e-08
-4.9034e-08
-1.95261e-08
-4.26269e-08
-1.85296e-08
-3.65838e-08
-1.74235e-08
-3.0938e-08
-1.62156e-08
-2.57195e-08
-1.49151e-08
-2.09546e-08
-1.35329e-08
-1.66651e-08
-1.20816e-08
-1.28677e-08
-1.05762e-08
-9.57318e-09
-9.03411e-09
-6.78555e-09
-7.47629e-09
-4.50076e-09
-5.92756e-09
-2.70555e-09
-4.41801e-09
-1.37593e-09
-2.98432e-09
-4.75564e-10
-1.67159e-09
4.61632e-11
-5.35657e-10
2.56301e-10
3.54345e-10
2.408e-10
9.13492e-10
1.08287e-10
1.0384e-09
5.95545e-10
-1.048e-10
-2.32374e-10
-5.33457e-10
2.6051e-10
-1.37468e-09
1.40845e-09
-2.69326e-09
2.99469e-09
-4.53361e-09
4.86035e-09
-6.92198e-09
6.88395e-09
-9.86901e-09
8.97389e-09
-1.33724e-08
1.10623e-08
-1.74194e-08
1.30997e-08
-2.1989e-08
1.50506e-08
-2.70539e-08
1.68903e-08
-3.25826e-08
1.86022e-08
-3.85399e-08
2.01762e-08
-4.48891e-08
2.16065e-08
-5.15919e-08
2.2891e-08
-5.861e-08
2.40302e-08
-6.59049e-08
2.50263e-08
-7.34389e-08
2.58829e-08
-8.11747e-08
2.66044e-08
-8.90765e-08
2.71958e-08
-9.71093e-08
2.76621e-08
-1.05239e-07
2.80087e-08
-1.13434e-07
2.82407e-08
-1.21662e-07
2.83629e-08
-1.29894e-07
2.83802e-08
-1.38099e-07
2.82966e-08
-1.46251e-07
2.81162e-08
-1.54321e-07
2.78425e-08
-1.62285e-07
2.74786e-08
-1.70115e-07
2.70272e-08
-1.77788e-07
2.64908e-08
-1.85278e-07
2.58714e-08
-1.92563e-07
2.51708e-08
-1.99619e-07
2.43905e-08
-2.06423e-07
2.35319e-08
-2.12952e-07
2.25962e-08
-2.19186e-07
2.15846e-08
-2.25101e-07
2.04981e-08
-2.30677e-07
1.9338e-08
-2.35894e-07
1.81055e-08
-2.4073e-07
1.68021e-08
-2.45166e-07
1.54294e-08
-2.49183e-07
1.39893e-08
-2.52763e-07
1.2484e-08
-2.55887e-07
1.09163e-08
-2.5854e-07
9.28925e-09
-2.60705e-07
7.6063e-09
-2.62369e-07
5.87153e-09
-2.63519e-07
4.08956e-09
-2.64142e-07
2.26553e-09
-2.64229e-07
4.05165e-10
-2.63773e-07
-1.4852e-09
-2.62767e-07
-3.39865e-09
-2.61207e-07
-5.32767e-09
-2.59092e-07
-7.2642e-09
-2.56422e-07
-9.19962e-09
-2.53202e-07
-1.11248e-08
-2.49437e-07
-1.30302e-08
-2.45136e-07
-1.49057e-08
-2.40311e-07
-1.67411e-08
-2.34977e-07
-1.85256e-08
-2.29152e-07
-2.02485e-08
-2.22856e-07
-2.18989e-08
-2.16114e-07
-2.34657e-08
-2.08952e-07
-2.49381e-08
-2.014e-07
-2.63053e-08
-1.9349e-07
-2.75571e-08
-1.85259e-07
-2.86833e-08
-1.76745e-07
-2.96744e-08
-1.67987e-07
-3.05217e-08
-1.59029e-07
-3.1217e-08
-1.49915e-07
-3.17529e-08
-1.40691e-07
-3.2123e-08
-1.31407e-07
-3.23222e-08
-1.22109e-07
-3.2346e-08
-1.12849e-07
-3.21916e-08
-1.03677e-07
-3.18571e-08
-9.46423e-08
-3.13421e-08
-8.57953e-08
-3.06478e-08
-7.7185e-08
-2.97766e-08
-6.88593e-08
-2.87324e-08
-6.08643e-08
-2.75211e-08
-5.32441e-08
-2.61498e-08
-4.60399e-08
-2.46277e-08
-3.92899e-08
-2.29657e-08
-3.30282e-08
-2.11768e-08
-2.72848e-08
-1.92763e-08
-2.20844e-08
-1.7282e-08
-1.74459e-08
-1.52146e-08
-1.33816e-08
-1.30985e-08
-9.89595e-09
-1.09619e-08
-6.98494e-09
-8.83857e-09
-4.63465e-09
-6.7683e-09
-2.82009e-09
-4.79888e-09
-1.50379e-09
-2.98789e-09
-6.34369e-10
-1.40509e-09
-1.44752e-10
-1.35276e-10
4.97171e-11
7.1902e-10
5.41082e-11
1.034e-09
6.49651e-10
-1.93858e-10
-3.8515e-11
-8.49788e-10
9.16437e-10
-2.02984e-09
2.58849e-09
-3.78085e-09
4.7457e-09
-6.13459e-09
7.21408e-09
-9.10842e-09
9.8578e-09
-1.27067e-08
1.25722e-08
-1.69225e-08
1.52781e-08
-2.17392e-08
1.79164e-08
-2.71327e-08
2.04441e-08
-3.30727e-08
2.28303e-08
-3.95245e-08
2.5054e-08
-4.645e-08
2.71016e-08
-5.38089e-08
2.89653e-08
-6.15596e-08
3.06417e-08
-6.96599e-08
3.21305e-08
-7.80676e-08
3.3434e-08
-8.67409e-08
3.45562e-08
-9.56387e-08
3.55022e-08
-1.04721e-07
3.62779e-08
-1.13948e-07
3.68896e-08
-1.23283e-07
3.73436e-08
-1.32689e-07
3.76464e-08
-1.4213e-07
3.78042e-08
-1.51573e-07
3.78227e-08
-1.60984e-07
3.77074e-08
-1.70331e-07
3.74633e-08
-1.79583e-07
3.70949e-08
-1.88711e-07
3.66062e-08
-1.97684e-07
3.60009e-08
-2.06475e-07
3.5282e-08
-2.15056e-07
3.44523e-08
-2.234e-07
3.35143e-08
-2.31479e-07
3.24699e-08
-2.39268e-07
3.13211e-08
-2.46742e-07
3.00695e-08
-2.53874e-07
2.87168e-08
-2.6064e-07
2.72646e-08
-2.67017e-07
2.57146e-08
-2.7298e-07
2.40685e-08
-2.78506e-07
2.23283e-08
-2.83573e-07
2.04965e-08
-2.8816e-07
1.85756e-08
-2.92244e-07
1.65688e-08
-2.95808e-07
1.44796e-08
-2.98831e-07
1.23124e-08
-3.01296e-07
1.00718e-08
-3.03188e-07
7.7633e-09
-3.04492e-07
5.39308e-09
-3.05194e-07
2.96801e-09
-3.05285e-07
4.95735e-10
-3.04754e-07
-2.01534e-09
-3.03597e-07
-4.55603e-09
-3.01808e-07
-7.11642e-09
-2.99387e-07
-9.68583e-09
-2.96333e-07
-1.22529e-08
-2.92653e-07
-1.48056e-08
-2.88351e-07
-1.73313e-08
-2.8344e-07
-1.98169e-08
-2.77933e-07
-2.22487e-08
-2.71845e-07
-2.46129e-08
-2.65199e-07
-2.68951e-08
-2.58017e-07
-2.90811e-08
-2.50326e-07
-3.11565e-08
-2.42157e-07
-3.3107e-08
-2.33543e-07
-3.49187e-08
-2.24522e-07
-3.6578e-08
-2.15134e-07
-3.80717e-08
-2.05421e-07
-3.93875e-08
-1.95429e-07
-4.05137e-08
-1.85206e-07
-4.14398e-08
-1.74803e-07
-4.21562e-08
-1.64271e-07
-4.26547e-08
-1.53665e-07
-4.29283e-08
-1.4304e-07
-4.29715e-08
-1.32451e-07
-4.27804e-08
-1.21955e-07
-4.2353e-08
-1.11608e-07
-4.16887e-08
-1.01467e-07
-4.07891e-08
-9.15859e-08
-3.96575e-08
-8.20189e-08
-3.82995e-08
-7.28174e-08
-3.67226e-08
-6.40306e-08
-3.49366e-08
-5.57047e-08
-3.29536e-08
-4.78821e-08
-3.07883e-08
-4.0601e-08
-2.84579e-08
-3.38946e-08
-2.59827e-08
-2.77904e-08
-2.33862e-08
-2.23095e-08
-2.06955e-08
-1.74658e-08
-1.79421e-08
-1.3265e-08
-1.51627e-08
-9.70372e-09
-1.23999e-08
-6.76843e-09
-9.70359e-09
-4.43454e-09
-7.13277e-09
-2.66525e-09
-4.75719e-09
-1.41047e-09
-2.65988e-09
-6.05654e-10
-9.40093e-10
-1.70581e-10
2.83941e-10
-7.80535e-12
8.71225e-10
6.41844e-10
-2.83072e-10
2.44544e-10
-1.17119e-09
1.80457e-09
-2.70002e-09
4.11733e-09
-4.89693e-09
6.94259e-09
-7.77913e-09
1.00963e-08
-1.13532e-08
1.34319e-08
-1.56154e-08
1.68344e-08
-2.05526e-08
2.02153e-08
-2.61434e-08
2.35073e-08
-3.23598e-08
2.66604e-08
-3.91679e-08
2.96384e-08
-4.65297e-08
3.24158e-08
-5.4404e-08
3.49759e-08
-6.27474e-08
3.73087e-08
-7.1515e-08
3.94093e-08
-8.06615e-08
4.12769e-08
-9.01411e-08
4.29136e-08
-9.99086e-08
4.43237e-08
-1.09919e-07
4.5513e-08
-1.2013e-07
4.64882e-08
-1.30497e-07
4.72567e-08
-1.40979e-07
4.78261e-08
-1.51537e-07
4.8204e-08
-1.6213e-07
4.83978e-08
-1.72722e-07
4.84146e-08
-1.83276e-07
4.82609e-08
-1.93756e-07
4.79429e-08
-2.04127e-07
4.74662e-08
-2.14357e-07
4.68358e-08
-2.24412e-07
4.6056e-08
-2.34261e-07
4.5131e-08
-2.43872e-07
4.40641e-08
-2.53217e-07
4.28583e-08
-2.62263e-07
4.15166e-08
-2.70983e-07
4.00411e-08
-2.79348e-07
3.84343e-08
-2.87329e-07
3.66982e-08
-2.949e-07
3.48351e-08
-3.02033e-07
3.28472e-08
-3.08701e-07
3.07369e-08
-3.14879e-07
2.85069e-08
-3.20543e-07
2.61602e-08
-3.25668e-07
2.37006e-08
-3.30231e-07
2.11319e-08
-3.34211e-07
1.84591e-08
-3.37586e-07
1.56874e-08
-3.40337e-07
1.28231e-08
-3.42447e-07
9.87322e-09
-3.439e-07
6.84567e-09
-3.44681e-07
3.74927e-09
-3.44779e-07
5.93781e-10
-3.44184e-07
-2.61007e-09
-3.4289e-07
-5.8506e-09
-3.40891e-07
-9.11521e-09
-3.38186e-07
-1.23903e-08
-3.34778e-07
-1.56616e-08
-3.30669e-07
-1.89138e-08
-3.2587e-07
-2.21309e-08
-3.20391e-07
-2.52963e-08
-3.14246e-07
-2.83929e-08
-3.07456e-07
-3.1403e-08
-3.00043e-07
-3.43087e-08
-2.92032e-07
-3.7092e-08
-2.83453e-07
-3.97348e-08
-2.74341e-07
-4.22191e-08
-2.64733e-07
-4.45273e-08
-2.54669e-07
-4.66422e-08
-2.44193e-07
-4.85475e-08
-2.33353e-07
-5.02276e-08
-2.22199e-07
-5.16678e-08
-2.10784e-07
-5.28548e-08
-1.99163e-07
-5.37767e-08
-1.87395e-07
-5.44231e-08
-1.75538e-07
-5.47854e-08
-1.63653e-07
-5.48566e-08
-1.51801e-07
-5.4632e-08
-1.40045e-07
-5.4109e-08
-1.28446e-07
-5.32871e-08
-1.17067e-07
-5.21684e-08
-1.05967e-07
-5.07573e-08
-9.52061e-08
-4.90608e-08
-8.484e-08
-4.70887e-08
-7.4923e-08
-4.48536e-08
-6.55057e-08
-4.23709e-08
-5.66347e-08
-3.96593e-08
-4.83518e-08
-3.67408e-08
-4.06935e-08
-3.3641e-08
-3.36901e-08
-3.03896e-08
-2.73651e-08
-2.70204e-08
-2.17344e-08
-2.35729e-08
-1.68052e-08
-2.00919e-08
-1.25757e-08
-1.66294e-08
-9.03365e-09
-1.32456e-08
-6.15608e-09
-1.00103e-08
-3.90823e-09
-7.00504e-09
-2.24294e-09
-4.32516e-09
-1.10007e-09
-2.08297e-09
-4.05933e-10
-4.10198e-10
-7.30539e-11
5.38342e-10
5.68789e-10
-3.70577e-10
6.15118e-10
-1.49044e-09
2.92443e-09
-3.37032e-09
5.99721e-09
-6.0179e-09
9.59017e-09
-9.43494e-09
1.35133e-08
-1.3616e-08
1.76129e-08
-1.85479e-08
2.17663e-08
-2.42103e-08
2.58777e-08
-3.05761e-08
2.9873e-08
-3.76122e-08
3.36965e-08
-4.52808e-08
3.73071e-08
-5.35405e-08
4.06755e-08
-6.23468e-08
4.37821e-08
-7.16529e-08
4.66149e-08
-8.14112e-08
4.91676e-08
-9.1573e-08
5.14387e-08
-1.0209e-07
5.34303e-08
-1.12913e-07
5.51468e-08
-1.23994e-07
5.65947e-08
-1.35288e-07
5.77817e-08
-1.46747e-07
5.8716e-08
-1.58328e-07
5.94065e-08
-1.69986e-07
5.98619e-08
-1.81679e-07
6.0091e-08
-1.93366e-07
6.01021e-08
-2.05008e-07
5.99028e-08
-2.16566e-07
5.95006e-08
-2.28001e-07
5.8902e-08
-2.39279e-07
5.8113e-08
-2.50362e-07
5.71391e-08
-2.61216e-07
5.5985e-08
-2.71807e-07
5.4655e-08
-2.82101e-07
5.31528e-08
-2.92067e-07
5.1482e-08
-3.01671e-07
4.96454e-08
-3.10883e-07
4.7646e-08
-3.19671e-07
4.54867e-08
-3.28006e-07
4.317e-08
-3.35858e-07
4.0699e-08
-3.43198e-07
3.80768e-08
-3.49998e-07
3.53069e-08
-3.5623e-07
3.23931e-08
-3.6187e-07
2.93401e-08
-3.66891e-07
2.6153e-08
-3.7127e-07
2.28378e-08
-3.74984e-07
1.94012e-08
-3.78012e-07
1.58511e-08
-3.80335e-07
1.21963e-08
-3.81935e-07
8.4464e-09
-3.82799e-07
4.61252e-09
-3.82912e-07
7.06708e-10
-3.82264e-07
-3.25779e-09
-3.80848e-07
-7.26658e-09
-3.78659e-07
-1.13041e-08
-3.75696e-07
-1.53537e-08
-3.71959e-07
-1.93977e-08
-3.67456e-07
-2.34174e-08
-3.62194e-07
-2.73932e-08
-3.56185e-07
-3.13047e-08
-3.49447e-07
-3.51309e-08
-3.42e-07
-3.88502e-08
-3.33868e-07
-4.24407e-08
-3.2508e-07
-4.58803e-08
-3.15668e-07
-4.91468e-08
-3.05668e-07
-5.22184e-08
-2.95122e-07
-5.50734e-08
-2.84074e-07
-5.76909e-08
-2.7257e-07
-6.00509e-08
-2.60663e-07
-6.21342e-08
-2.48408e-07
-6.39232e-08
-2.35861e-07
-6.54015e-08
-2.23084e-07
-6.65544e-08
-2.10137e-07
-6.73695e-08
-1.97087e-07
-6.78361e-08
-1.83997e-07
-6.79458e-08
-1.70936e-07
-6.76931e-08
-1.57971e-07
-6.70746e-08
-1.45168e-07
-6.60899e-08
-1.32595e-07
-6.47417e-08
-1.20316e-07
-6.30355e-08
-1.08397e-07
-6.09802e-08
-9.6898e-08
-5.85877e-08
-8.58779e-08
-5.58737e-08
-7.53915e-08
-5.28573e-08
-6.54894e-08
-4.95615e-08
-5.62169e-08
-4.60133e-08
-4.7614e-08
-4.2244e-08
-3.97138e-08
-3.82897e-08
-3.25425e-08
-3.41917e-08
-2.61183e-08
-2.99971e-08
-2.04507e-08
-2.57595e-08
-1.55398e-08
-2.15403e-08
-1.13757e-08
-1.74097e-08
-7.93801e-09
-1.34481e-08
-5.19501e-09
-9.74804e-09
-3.10374e-09
-6.41644e-09
-1.60966e-09
-3.57705e-09
-6.46919e-10
-1.37294e-09
-1.38927e-10
3.03455e-11
4.29861e-10
-4.55476e-10
1.07059e-09
-1.80338e-09
4.27233e-09
-4.03149e-09
8.22533e-09
-7.12841e-09
1.26871e-08
-1.10802e-08
1.74652e-08
-1.58688e-08
2.24015e-08
-2.14709e-08
2.73684e-08
-2.78578e-08
3.22645e-08
-3.49957e-08
3.70109e-08
-4.28463e-08
4.15472e-08
-5.13673e-08
4.58281e-08
-6.05132e-08
4.98214e-08
-7.02358e-08
5.35048e-08
-8.04855e-08
5.68646e-08
-9.12114e-08
5.98934e-08
-1.02362e-07
6.25892e-08
-1.13886e-07
6.49539e-08
-1.25731e-07
6.69923e-08
-1.37848e-07
6.87113e-08
-1.50186e-07
7.01196e-08
-1.62696e-07
7.12265e-08
-1.75331e-07
7.20419e-08
-1.88045e-07
7.25758e-08
-2.00792e-07
7.28382e-08
-2.13529e-07
7.28386e-08
-2.26212e-07
7.2586e-08
-2.388e-07
7.20888e-08
-2.51253e-07
7.13548e-08
-2.63531e-07
7.0391e-08
-2.75596e-07
6.92037e-08
-2.87409e-07
6.77986e-08
-2.98935e-07
6.61808e-08
-3.10137e-07
6.43549e-08
-3.2098e-07
6.23249e-08
-3.31429e-07
6.00945e-08
-3.41451e-07
5.76674e-08
-3.51011e-07
5.50469e-08
-3.60078e-07
5.22366e-08
-3.68619e-07
4.924e-08
-3.76603e-07
4.6061e-08
-3.84e-07
4.2704e-08
-3.90781e-07
3.91738e-08
-3.96917e-07
3.54761e-08
-4.02381e-07
3.16173e-08
-4.07148e-07
2.76045e-08
-4.11192e-07
2.34462e-08
-4.14493e-07
1.91517e-08
-4.17029e-07
1.47318e-08
-4.18781e-07
1.01984e-08
-4.19733e-07
5.56454e-09
-4.19871e-07
8.44953e-10
-4.19184e-07
-3.94443e-09
-4.17665e-07
-8.78627e-09
-4.15307e-07
-1.36619e-08
-4.12109e-07
-1.85513e-08
-4.08074e-07
-2.34333e-08
-4.03206e-07
-2.82854e-08
-3.97515e-07
-3.30842e-08
-3.91014e-07
-3.78052e-08
-3.83722e-07
-4.24233e-08
-3.75659e-07
-4.69126e-08
-3.66853e-07
-5.1247e-08
-3.57333e-07
-5.54e-08
-3.47135e-07
-5.93452e-08
-3.36297e-07
-6.30562e-08
-3.24863e-07
-6.65073e-08
-3.1288e-07
-6.96736e-08
-3.004e-07
-7.2531e-08
-2.87478e-07
-7.50567e-08
-2.74172e-07
-7.72295e-08
-2.60543e-07
-7.903e-08
-2.46657e-07
-8.04406e-08
-2.3258e-07
-8.14463e-08
-2.18382e-07
-8.20346e-08
-2.04132e-07
-8.21954e-08
-1.89903e-07
-8.1922e-08
-1.75767e-07
-8.12106e-08
-1.61796e-07
-8.00609e-08
-1.48062e-07
-7.84759e-08
-1.34635e-07
-7.64625e-08
-1.21584e-07
-7.40314e-08
-1.08974e-07
-7.1197e-08
-9.68699e-08
-6.79782e-08
-8.53293e-08
-6.43979e-08
-7.4407e-08
-6.04837e-08
-6.41523e-08
-5.6268e-08
-5.46083e-08
-5.1788e-08
-4.58115e-08
-4.70865e-08
-3.7791e-08
-4.22123e-08
-3.05676e-08
-3.72204e-08
-2.41536e-08
-3.21735e-08
-1.85518e-08
-2.71421e-08
-1.37554e-08
-2.22062e-08
-9.74698e-09
-1.74565e-08
-6.49902e-09
-1.2996e-08
-3.97347e-09
-8.942e-09
-2.12214e-09
-5.42839e-09
-8.87456e-10
-2.60762e-09
-2.03836e-10
-6.53277e-10
2.26024e-10
-5.37353e-10
1.60794e-09
-2.10772e-09
5.8427e-09
-4.67807e-09
1.07957e-08
-8.21887e-09
1.62279e-08
-1.27008e-08
2.19471e-08
-1.80929e-08
2.77935e-08
-2.43611e-08
3.36366e-08
-3.1468e-08
3.93714e-08
-3.93726e-08
4.49156e-08
-4.80306e-08
5.02051e-08
-5.73946e-08
5.51921e-08
-6.74147e-08
5.98415e-08
-7.80393e-08
6.41294e-08
-8.92151e-08
6.80404e-08
-1.00888e-07
7.15665e-08
-1.13004e-07
7.47052e-08
-1.25509e-07
7.74584e-08
-1.38348e-07
7.98313e-08
-1.51468e-07
8.18316e-08
-1.64817e-07
8.34686e-08
-1.78343e-07
8.47529e-08
-1.91997e-07
8.56954e-08
-2.05728e-07
8.63074e-08
-2.1949e-07
8.66001e-08
-2.33236e-07
8.65842e-08
-2.4692e-07
8.627e-08
-2.60498e-07
8.56671e-08
-2.73928e-07
8.47842e-08
-2.87166e-07
8.36295e-08
-3.00173e-07
8.22104e-08
-3.12908e-07
8.05333e-08
-3.25331e-07
7.86042e-08
-3.37404e-07
7.64284e-08
-3.4909e-07
7.40108e-08
-3.60352e-07
7.13558e-08
-3.71152e-07
6.84677e-08
-3.81456e-07
6.53507e-08
-3.91228e-07
6.20088e-08
-4.00434e-07
5.84465e-08
-4.09042e-07
5.46685e-08
-4.17018e-07
5.06801e-08
-4.24331e-07
4.64871e-08
-4.30952e-07
4.20964e-08
-4.3685e-07
3.75155e-08
-4.41999e-07
3.27532e-08
-4.46372e-07
2.78194e-08
-4.49945e-07
2.27254e-08
-4.52697e-07
1.74837e-08
-4.54607e-07
1.21086e-08
-4.55659e-07
6.61559e-09
-4.55836e-07
1.02199e-09
-4.55127e-07
-4.65336e-09
-4.53523e-07
-1.039e-08
-4.51019e-07
-1.6166e-08
-4.47612e-07
-2.19578e-08
-4.43305e-07
-2.77402e-08
-4.38104e-07
-3.34871e-08
-4.32017e-07
-3.91708e-08
-4.25059e-07
-4.47627e-08
-4.1725e-07
-5.02331e-08
-4.08611e-07
-5.55516e-08
-3.9917e-07
-6.06877e-08
-3.8896e-07
-6.561e-08
-3.78018e-07
-7.02877e-08
-3.66384e-07
-7.46898e-08
-3.54105e-07
-7.87861e-08
-3.41231e-07
-8.25473e-08
-3.27817e-07
-8.59451e-08
-3.13921e-07
-8.89527e-08
-2.99606e-07
-9.15453e-08
-2.84936e-07
-9.37e-08
-2.6998e-07
-9.53962e-08
-2.5481e-07
-9.66163e-08
-2.39499e-07
-9.73454e-08
-2.24123e-07
-9.75719e-08
-2.08757e-07
-9.72877e-08
-1.93479e-07
-9.64886e-08
-1.78366e-07
-9.51741e-08
-1.63494e-07
-9.33479e-08
-1.48938e-07
-9.10181e-08
-1.34772e-07
-8.81972e-08
-1.21067e-07
-8.49024e-08
-1.07889e-07
-8.11558e-08
-9.53026e-08
-7.69845e-08
-8.33656e-08
-7.24208e-08
-7.21311e-08
-6.75025e-08
-6.16461e-08
-6.2273e-08
-5.19504e-08
-5.67822e-08
-4.30764e-08
-5.10863e-08
-3.50482e-08
-4.52486e-08
-2.78812e-08
-3.93405e-08
-2.15815e-08
-3.34417e-08
-1.61457e-08
-2.7642e-08
-1.15603e-08
-2.20418e-08
-7.80247e-09
-1.67539e-08
-4.83941e-09
-1.19051e-08
-2.62966e-09
-7.63814e-09
-1.12391e-09
-4.11337e-09
-2.66838e-10
-1.51035e-09
-4.08123e-11
-6.16062e-10
2.22401e-09
-2.4024e-09
7.62903e-09
-5.30707e-09
1.37004e-08
-9.28362e-09
2.02044e-08
-1.42878e-08
2.69513e-08
-2.02759e-08
3.37816e-08
-2.72031e-08
4.05637e-08
-3.50227e-08
4.71911e-08
-4.36861e-08
5.3579e-08
-5.31426e-08
5.96616e-08
-6.33393e-08
6.53888e-08
-7.42218e-08
7.0724e-08
-8.57342e-08
7.56418e-08
-9.782e-08
8.01262e-08
-1.10422e-07
8.41684e-08
-1.23483e-07
8.77659e-08
-1.36945e-07
9.09208e-08
-1.50753e-07
9.36389e-08
-1.64849e-07
9.59285e-08
-1.79181e-07
9.77999e-08
-1.93693e-07
9.92648e-08
-2.08333e-07
1.00335e-07
-2.23049e-07
1.01024e-07
-2.37792e-07
1.01343e-07
-2.52512e-07
1.01305e-07
-2.67163e-07
1.0092e-07
-2.81696e-07
1.00201e-07
-2.96068e-07
9.91558e-08
-3.10233e-07
9.77948e-08
-3.24149e-07
9.6126e-08
-3.37772e-07
9.41568e-08
-3.51062e-07
9.1894e-08
-3.63977e-07
8.93438e-08
-3.76478e-07
8.65117e-08
-3.88525e-07
8.3403e-08
-4.0008e-07
8.00227e-08
-4.11105e-07
7.63756e-08
-4.21563e-07
7.24666e-08
-4.31418e-07
6.8301e-08
-4.40633e-07
6.38843e-08
-4.49176e-07
5.92228e-08
-4.57012e-07
5.43235e-08
-4.6411e-07
4.91942e-08
-4.70439e-07
4.3844e-08
-4.75968e-07
3.8283e-08
-4.80672e-07
3.2523e-08
-4.84524e-07
2.65771e-08
-4.875e-07
2.04599e-08
-4.89579e-07
1.41879e-08
-4.90743e-07
7.77941e-09
-4.90975e-07
1.25435e-09
-4.90263e-07
-5.36537e-09
-4.88597e-07
-1.20561e-08
-4.85971e-07
-1.87922e-08
-4.82382e-07
-2.55465e-08
-4.77833e-07
-3.229e-08
-4.72328e-07
-3.89921e-08
-4.65878e-07
-4.5621e-08
-4.58497e-07
-5.21435e-08
-4.50205e-07
-5.85253e-08
-4.41025e-07
-6.47313e-08