/*--------------------------------*- C++ -*----------------------------------*\
| =========                 |                                                 |
| \\      /  F ield         | OpenFOAM: The Open Source CFD Toolbox           |
|  \\    /   O peration     | Version:  2512                                  |
|   \\  /    A nd           | Website:  www.openfoam.com                      |
|    \\/     M anipulation  |                                                 |
\*---------------------------------------------------------------------------*/
FoamFile
{
    version     2.0;
    format      ascii;
    arch        "LSB;label=32;scalar=64";
    class       volVectorField;
    location    "0.28";
    object      U;
}
// * * * * * * * * * * * * * * * * * * * * * * * * * * * * * * * * * * * * * //

dimensions      [0 1 -1 0 0 0 0];

internalField   nonuniform List<vector> 
10000
(
(3.10014e-06 -3.06518e-06 0)
(1.27087e-05 -6.13769e-06 0)
(2.53115e-05 -6.0397e-06 0)
(3.43396e-05 -4.13726e-06 0)
(3.63684e-05 -1.45986e-06 0)
(3.00727e-05 1.46191e-06 0)
(1.50443e-05 4.37743e-06 0)
(-8.64944e-06 7.15819e-06 0)
(-4.06788e-05 9.7495e-06 0)
(-8.05439e-05 1.21311e-05 0)
(-0.000127665 1.42927e-05 0)
(-0.000181427 1.62314e-05 0)
(-0.000241196 1.79551e-05 0)
(-0.000306348 1.94754e-05 0)
(-0.000376279 2.08042e-05 0)
(-0.000450403 2.19556e-05 0)
(-0.000528165 2.29407e-05 0)
(-0.000609038 2.3768e-05 0)
(-0.000692527 2.44488e-05 0)
(-0.000778162 2.49972e-05 0)
(-0.000865509 2.54237e-05 0)
(-0.000954156 2.57336e-05 0)
(-0.00104372 2.59344e-05 0)
(-0.00113383 2.60346e-05 0)
(-0.00122415 2.60405e-05 0)
(-0.00131436 2.59567e-05 0)
(-0.00140415 2.57888e-05 0)
(-0.00149322 2.5542e-05 0)
(-0.0015813 2.52186e-05 0)
(-0.00166812 2.48207e-05 0)
(-0.00175342 2.43504e-05 0)
(-0.00183693 2.38103e-05 0)
(-0.00191842 2.32019e-05 0)
(-0.00199763 2.25242e-05 0)
(-0.00207432 2.1777e-05 0)
(-0.00214825 2.09619e-05 0)
(-0.00221919 2.00797e-05 0)
(-0.00228689 1.91301e-05 0)
(-0.00235111 1.81119e-05 0)
(-0.00241163 1.70249e-05 0)
(-0.00246821 1.587e-05 0)
(-0.00252061 1.46483e-05 0)
(-0.00256861 1.33603e-05 0)
(-0.00261199 1.20062e-05 0)
(-0.00265053 1.05875e-05 0)
(-0.00268401 9.10682e-06 0)
(-0.00271224 7.56632e-06 0)
(-0.00273502 5.9684e-06 0)
(-0.00275217 4.31671e-06 0)
(-0.00276352 2.61628e-06 0)
(-0.00276894 8.72748e-07 0)
(-0.00276828 -9.08525e-07 0)
(-0.00276145 -2.72177e-06 0)
(-0.00274835 -4.55987e-06 0)
(-0.00272892 -6.41476e-06 0)
(-0.00270315 -8.27762e-06 0)
(-0.00267101 -1.01388e-05 0)
(-0.00263255 -1.19888e-05 0)
(-0.00258783 -1.38176e-05 0)
(-0.00253695 -1.56143e-05 0)
(-0.00248004 -1.7367e-05 0)
(-0.00241729 -1.90642e-05 0)
(-0.0023489 -2.06943e-05 0)
(-0.00227513 -2.22456e-05 0)
(-0.00219626 -2.37065e-05 0)
(-0.00211263 -2.50649e-05 0)
(-0.00202461 -2.63089e-05 0)
(-0.00193261 -2.74272e-05 0)
(-0.00183705 -2.84091e-05 0)
(-0.00173843 -2.92449e-05 0)
(-0.00163724 -2.99253e-05 0)
(-0.00153403 -3.0442e-05 0)
(-0.00142934 -3.07872e-05 0)
(-0.00132377 -3.09545e-05 0)
(-0.00121792 -3.09389e-05 0)
(-0.0011124 -3.07363e-05 0)
(-0.00100784 -3.03437e-05 0)
(-0.00090488 -2.97595e-05 0)
(-0.000804144 -2.89837e-05 0)
(-0.000706266 -2.80181e-05 0)
(-0.000611869 -2.68655e-05 0)
(-0.000521564 -2.55297e-05 0)
(-0.00043594 -2.40158e-05 0)
(-0.000355567 -2.23311e-05 0)
(-0.000280984 -2.0484e-05 0)
(-0.000212697 -1.8484e-05 0)
(-0.000151172 -1.6342e-05 0)
(-9.68271e-05 -1.40712e-05 0)
(-5.00268e-05 -1.16869e-05 0)
(-1.10681e-05 -9.20803e-06 0)
(1.98315e-05 -6.65795e-06 0)
(4.25559e-05 -4.06644e-06 0)
(5.71198e-05 -1.47653e-06 0)
(6.37133e-05 1.04758e-06 0)
(6.27776e-05 3.40355e-06 0)
(5.51208e-05 5.42488e-06 0)
(4.20787e-05 6.83214e-06 0)
(2.58341e-05 7.14721e-06 0)
(1.03575e-05 5.60234e-06 0)
(1.73147e-06 1.73576e-06 0)
(6.09438e-06 -1.26904e-05 0)
(2.18196e-05 -2.1835e-05 0)
(3.79563e-05 -1.86675e-05 0)
(4.35747e-05 -8.01074e-06 0)
(3.21395e-05 6.54392e-06 0)
(4.15354e-07 2.28397e-05 0)
(-5.30379e-05 3.96042e-05 0)
(-0.000128551 5.60681e-05 0)
(-0.000225663 7.17976e-05 0)
(-0.000343422 8.65389e-05 0)
(-0.000480571 0.000100153 0)
(-0.000635661 0.000112578 0)
(-0.000807158 0.000123794 0)
(-0.000993496 0.000133815 0)
(-0.0011931 0.000142676 0)
(-0.00140445 0.000150426 0)
(-0.00162604 0.000157116 0)
(-0.00185646 0.000162799 0)
(-0.00209434 0.000167531 0)
(-0.00233838 0.000171371 0)
(-0.00258736 0.000174372 0)
(-0.00284013 0.000176584 0)
(-0.00309558 0.000178054 0)
(-0.00335268 0.000178824 0)
(-0.00361043 0.000178932 0)
(-0.00386792 0.000178413 0)
(-0.00412423 0.000177297 0)
(-0.00437853 0.00017561 0)
(-0.00462999 0.000173375 0)
(-0.00487783 0.000170608 0)
(-0.00512127 0.000167327 0)
(-0.00535957 0.000163543 0)
(-0.005592 0.000159265 0)
(-0.00581785 0.000154501 0)
(-0.0060364 0.000149255 0)
(-0.00624697 0.000143532 0)
(-0.00644886 0.000137335 0)
(-0.00664138 0.000130668 0)
(-0.00682387 0.000123533 0)
(-0.00699565 0.000115933 0)
(-0.00715606 0.000107873 0)
(-0.00730444 9.93598e-05 0)
(-0.00744017 9.04006e-05 0)
(-0.00756261 8.10054e-05 0)
(-0.00767115 7.11872e-05 0)
(-0.00776522 6.09621e-05 0)
(-0.00784426 5.03491e-05 0)
(-0.00790773 3.93704e-05 0)
(-0.00795517 2.80529e-05 0)
(-0.00798611 1.64282e-05 0)
(-0.00800016 4.53268e-06 0)
(-0.00799698 -7.59398e-06 0)
(-0.00797629 -1.99087e-05 0)
(-0.00793788 -3.23631e-05 0)
(-0.0078816 -4.49033e-05 0)
(-0.00780739 -5.74718e-05 0)
(-0.00771526 -7.00075e-05 0)
(-0.00760533 -8.2446e-05 0)
(-0.0074778 -9.47193e-05 0)
(-0.00733298 -0.000106756 0)
(-0.00717125 -0.000118481 0)
(-0.00699314 -0.00012982 0)
(-0.00679924 -0.000140698 0)
(-0.00659028 -0.000151038 0)
(-0.00636709 -0.000160762 0)
(-0.0061306 -0.000169795 0)
(-0.00588183 -0.000178064 0)
(-0.00562194 -0.000185495 0)
(-0.00535215 -0.000192021 0)
(-0.00507378 -0.000197579 0)
(-0.00478825 -0.00020211 0)
(-0.00449704 -0.00020556 0)
(-0.00420172 -0.000207882 0)
(-0.00390388 -0.000209036 0)
(-0.0036052 -0.000208991 0)
(-0.00330738 -0.000207721 0)
(-0.00301215 -0.000205211 0)
(-0.00272125 -0.000201454 0)
(-0.00243642 -0.000196452 0)
(-0.00215941 -0.000190217 0)
(-0.00189191 -0.00018277 0)
(-0.00163558 -0.000174144 0)
(-0.00139205 -0.00016438 0)
(-0.00116286 -0.000153528 0)
(-0.000949455 -0.000141653 0)
(-0.000753192 -0.000128829 0)
(-0.000575298 -0.000115143 0)
(-0.000416859 -0.000100699 0)
(-0.000278787 -8.56214e-05 0)
(-0.000161787 -7.00597e-05 0)
(-6.63188e-05 -5.41985e-05 0)
(7.46771e-06 -3.8271e-05 0)
(5.98079e-05 -2.25861e-05 0)
(9.14331e-05 -7.56454e-06 0)
(0.000103734 6.19925e-06 0)
(9.89726e-05 1.78458e-05 0)
(8.05164e-05 2.61296e-05 0)
(5.3192e-05 2.92261e-05 0)
(2.45778e-05 2.46265e-05 0)
(5.56726e-06 1.03353e-05 0)
(5.96543e-06 -2.51988e-05 0)
(1.86254e-05 -3.79918e-05 0)
(2.53442e-05 -2.5375e-05 0)
(1.39523e-05 3.24034e-06 0)
(-2.31848e-05 4.10958e-05 0)
(-9.02558e-05 8.36586e-05 0)
(-0.000189412 0.000127913 0)
(-0.000321303 0.000171916 0)
(-0.000485512 0.000214419 0)
(-0.000680877 0.000254636 0)
(-0.000905717 0.000292102 0)
(-0.00115804 0.000326551 0)
(-0.00143567 0.000357862 0)
(-0.00173631 0.000386011 0)
(-0.00205766 0.000411041 0)
(-0.0023974 0.000433035 0)
(-0.00275328 0.000452108 0)
(-0.00312311 0.000468384 0)
(-0.00350478 0.000481999 0)
(-0.00389628 0.000493091 0)
(-0.00429569 0.000501796 0)
(-0.00470115 0.000508244 0)
(-0.00511095 0.000512559 0)
(-0.0055234 0.000514852 0)
(-0.00593693 0.000515229 0)
(-0.00635004 0.000513782 0)
(-0.00676129 0.000510594 0)
(-0.00716929 0.000505737 0)
(-0.00757271 0.000499273 0)
(-0.00797026 0.000491256 0)
(-0.00836071 0.00048173 0)
(-0.00874283 0.000470731 0)
(-0.00911544 0.000458289 0)
(-0.00947738 0.000444426 0)
(-0.0098275 0.000429161 0)
(-0.0101647 0.000412512 0)
(-0.0104878 0.000394491 0)
(-0.0107958 0.000375111 0)
(-0.0110875 0.000354384 0)
(-0.0113619 0.000332324 0)
(-0.0116179 0.000308951 0)
(-0.0118546 0.000284284 0)
(-0.0120708 0.000258351 0)
(-0.0122656 0.000231184 0)
(-0.012438 0.000202826 0)
(-0.0125872 0.000173325 0)
(-0.0127123 0.000142739 0)
(-0.0128124 0.000111136 0)
(-0.0128867 7.85966e-05 0)
(-0.0129347 4.52126e-05 0)
(-0.0129557 1.10866e-05 0)
(-0.0129492 -2.36665e-05 0)
(-0.0129147 -5.892e-05 0)
(-0.012852 -9.45349e-05 0)
(-0.0127609 -0.00013036 0)
(-0.0126412 -0.000166231 0)
(-0.0124931 -0.000201977 0)
(-0.0123167 -0.000237414 0)
(-0.0121124 -0.00027235 0)
(-0.0118806 -0.000306586 0)
(-0.0116221 -0.000339914 0)
(-0.0113376 -0.000372126 0)
(-0.0110282 -0.000403008 0)
(-0.010695 -0.000432345 0)
(-0.0103392 -0.000459924 0)
(-0.00996243 -0.000485533 0)
(-0.00956627 -0.000508969 0)
(-0.00915252 -0.000530032 0)
(-0.00872312 -0.000548533 0)
(-0.00828016 -0.000564297 0)
(-0.00782586 -0.000577159 0)
(-0.00736254 -0.000586975 0)
(-0.00689265 -0.000593613 0)
(-0.00641871 -0.000596965 0)
(-0.00594334 -0.000596943 0)
(-0.00546919 -0.000593483 0)
(-0.00499896 -0.000586542 0)
(-0.00453538 -0.000576106 0)
(-0.00408116 -0.000562183 0)
(-0.00363899 -0.000544813 0)
(-0.00321154 -0.000524061 0)
(-0.00280139 -0.000500021 0)
(-0.00241102 -0.000472819 0)
(-0.00204281 -0.000442609 0)
(-0.00169901 -0.000409581 0)
(-0.00138166 -0.000373959 0)
(-0.00109263 -0.00033601 0)
(-0.00083353 -0.000296049 0)
(-0.000605695 -0.000254451 0)
(-0.00041012 -0.000211666 0)
(-0.000247395 -0.000168244 0)
(-0.000117623 -0.000124873 0)
(-2.03139e-05 -8.24267e-05 0)
(4.57613e-05 -4.20504e-05 0)
(8.27529e-05 -5.26602e-06 0)
(9.39717e-05 2.58717e-05 0)
(8.40833e-05 4.85992e-05 0)
(5.937e-05 5.92496e-05 0)
(2.9191e-05 5.32194e-05 0)
(7.08876e-06 2.57355e-05 0)
(4.15962e-06 -3.42789e-05 0)
(8.21346e-06 -4.3719e-05 0)
(-2.96442e-06 -1.40235e-05 0)
(-4.05941e-05 4.0802e-05 0)
(-0.000112144 0.000110876 0)
(-0.000222118 0.000189152 0)
(-0.000372901 0.000270731 0)
(-0.000565284 0.000352245 0)
(-0.000798842 0.000431419 0)
(-0.00107225 0.000506762 0)
(-0.00138355 0.000577312 0)
(-0.00173037 0.000642493 0)
(-0.00211004 0.000702003 0)
(-0.00251974 0.000755722 0)
(-0.00295654 0.000803663 0)
(-0.00341754 0.000845934 0)
(-0.00389984 0.000882701 0)
(-0.00440062 0.000914169 0)
(-0.00491712 0.000940566 0)
(-0.00544671 0.000962126 0)
(-0.00598685 0.000979087 0)
(-0.00653509 0.000991682 0)
(-0.00708911 0.00100013 0)
(-0.00764669 0.00100465 0)
(-0.0082057 0.00100541 0)
(-0.00876411 0.0010026 0)
(-0.00931996 0.000996372 0)
(-0.00987137 0.000986861 0)
(-0.0104165 0.000974185 0)
(-0.0109537 0.000958448 0)
(-0.0114812 0.000939737 0)
(-0.0119973 0.000918123 0)
(-0.0125004 0.000893666 0)
(-0.012989 0.000866415 0)
(-0.0134615 0.000836412 0)
(-0.0139164 0.000803693 0)
(-0.0143521 0.000768289 0)
(-0.0147671 0.000730228 0)
(-0.0151601 0.000689544 0)
(-0.0155295 0.00064627 0)
(-0.0158739 0.000600446 0)
(-0.016192 0.000552118 0)
(-0.0164824 0.000501346 0)
(-0.0167438 0.000448199 0)
(-0.0169749 0.000392764 0)
(-0.0171745 0.000335138 0)
(-0.0173415 0.000275441 0)
(-0.0174748 0.000213811 0)
(-0.0175734 0.000150405 0)
(-0.0176365 8.54048e-05 0)
(-0.0176631 1.90109e-05 0)
(-0.0176528 -4.8552e-05 0)
(-0.0176049 -0.000117037 0)
(-0.017519 -0.000186172 0)
(-0.017395 -0.000255667 0)
(-0.0172327 -0.000325207 0)
(-0.0170323 -0.000394459 0)
(-0.016794 -0.000463072 0)
(-0.0165184 -0.000530677 0)
(-0.0162061 -0.000596892 0)
(-0.015858 -0.000661322 0)
(-0.0154752 -0.000723567 0)
(-0.0150591 -0.00078322 0)
(-0.0146112 -0.00083987 0)
(-0.0141333 -0.000893113 0)
(-0.0136273 -0.000942548 0)
(-0.0130954 -0.000987783 0)
(-0.01254 -0.00102844 0)
(-0.0119638 -0.00106417 0)
(-0.0113693 -0.00109463 0)
(-0.0107597 -0.00111952 0)
(-0.010138 -0.00113855 0)
(-0.0095074 -0.00115149 0)
(-0.00887126 -0.00115813 0)
(-0.00823301 -0.0011583 0)
(-0.00759617 -0.00115189 0)
(-0.00696431 -0.00113882 0)
(-0.006341 -0.00111906 0)
(-0.00572982 -0.00109265 0)
(-0.00513431 -0.00105965 0)
(-0.00455796 -0.00102021 0)
(-0.00400415 -0.000974514 0)
(-0.00347614 -0.000922812 0)
(-0.00297702 -0.000865415 0)
(-0.00250969 -0.000802702 0)
(-0.00207682 -0.000735121 0)
(-0.00168078 -0.000663207 0)
(-0.00132362 -0.000587589 0)
(-0.00100702 -0.000509012 0)
(-0.000732188 -0.000428364 0)
(-0.000499796 -0.000346719 0)
(-0.000309897 -0.000265393 0)
(-0.00016179 -0.000186025 0)
(-5.3879e-05 -0.000110692 0)
(1.65105e-05 -4.20546e-05 0)
(5.3342e-05 1.6452e-05 0)
(6.2029e-05 6.039e-05 0)
(4.9655e-05 8.4132e-05 0)
(2.64012e-05 8.07624e-05 0)
(6.80062e-06 4.19485e-05 0)
(1.58427e-06 -3.64894e-05 0)
(-6.18587e-06 -3.24356e-05 0)
(-4.0822e-05 2.31386e-05 0)
(-0.000111004 0.000112424 0)
(-0.000223209 0.000222706 0)
(-0.000381693 0.000344658 0)
(-0.000588721 0.000471519 0)
(-0.000844979 0.000598479 0)
(-0.00114991 0.000722179 0)
(-0.00150202 0.000840309 0)
(-0.00189911 0.000951328 0)
(-0.00233849 0.00105427 0)
(-0.00281712 0.00114856 0)
(-0.00333173 0.00123395 0)
(-0.00387896 0.00131037 0)
(-0.00445537 0.00137794 0)
(-0.00505755 0.00143686 0)
(-0.00568213 0.00148739 0)
(-0.00632583 0.00152987 0)
(-0.00698546 0.00156463 0)
(-0.00765794 0.00159201 0)
(-0.0083403 0.00161237 0)
(-0.0090297 0.00162604 0)
(-0.0097234 0.00163333 0)
(-0.0104188 0.00163453 0)
(-0.0111133 0.00162991 0)
(-0.0118046 0.00161972 0)
(-0.0124902 0.00160416 0)
(-0.013168 0.00158343 0)
(-0.0138358 0.00155769 0)
(-0.0144913 0.00152709 0)
(-0.0151327 0.00149173 0)
(-0.0157578 0.00145172 0)
(-0.0163646 0.00140714 0)
(-0.0169512 0.00135807 0)
(-0.0175158 0.00130457 0)
(-0.0180564 0.00124669 0)
(-0.0185711 0.0011845 0)
(-0.0190583 0.00111805 0)
(-0.019516 0.00104741 0)
(-0.0199425 0.000972642 0)
(-0.0203361 0.000893837 0)
(-0.0206952 0.000811096 0)
(-0.0210182 0.000724541 0)
(-0.0213035 0.000634315 0)
(-0.0215496 0.000540589 0)
(-0.0217551 0.000443559 0)
(-0.0219188 0.000343454 0)
(-0.0220394 0.000240535 0)
(-0.0221159 0.000135096 0)
(-0.0221474 2.74666e-05 0)
(-0.022133 -8.19877e-05 0)
(-0.0220722 -0.000192867 0)
(-0.0219644 -0.000304733 0)
(-0.0218095 -0.000417115 0)
(-0.0216074 -0.00052951 0)
(-0.0213582 -0.000641381 0)
(-0.0210624 -0.000752165 0)
(-0.0207205 -0.000861274 0)
(-0.0203334 -0.000968094 0)
(-0.0199022 -0.001072 0)
(-0.0194284 -0.00117235 0)
(-0.0189135 -0.00126849 0)
(-0.0183595 -0.00135978 0)
(-0.0177685 -0.00144556 0)
(-0.017143 -0.00152521 0)
(-0.0164856 -0.0015981 0)
(-0.0157993 -0.00166363 0)
(-0.0150873 -0.00172124 0)
(-0.0143528 -0.0017704 0)
(-0.0135996 -0.00181063 0)
(-0.0128313 -0.00184148 0)
(-0.0120518 -0.00186256 0)
(-0.0112654 -0.00187357 0)
(-0.0104761 -0.00187424 0)
(-0.00968821 -0.00186438 0)
(-0.00890607 -0.00184389 0)
(-0.00813401 -0.00181273 0)
(-0.00737638 -0.00177095 0)
(-0.00663746 -0.00171868 0)
(-0.00592147 -0.00165616 0)
(-0.00523249 -0.00158369 0)
(-0.00457446 -0.0015017 0)
(-0.00395109 -0.00141069 0)
(-0.00336586 -0.00131129 0)
(-0.00282194 -0.00120424 0)
(-0.00232217 -0.00109043 0)
(-0.00186897 -0.000970873 0)
(-0.00146427 -0.000846797 0)
(-0.00110949 -0.000719636 0)
(-0.000805383 -0.000591105 0)
(-0.000551971 -0.000463273 0)
(-0.000348427 -0.000338666 0)
(-0.000192928 -0.000220402 0)
(-8.2497e-05 -0.000112368 0)
(-1.2829e-05 -1.94312e-05 0)
(2.18539e-05 5.22989e-05 0)
(2.8998e-05 9.52513e-05 0)
(1.88665e-05 0.000100166 0)
(5.50287e-06 5.52017e-05 0)
(-1.29486e-06 -3.04502e-05 0)
(-2.25865e-05 -7.28855e-07 0)
(-8.4042e-05 9.0689e-05 0)
(-0.0001909 0.000223122 0)
(-0.000347993 0.000381567 0)
(-0.000558968 0.000554691 0)
(-0.000825646 0.000734047 0)
(-0.00114836 0.000913468 0)
(-0.00152631 0.00108851 0)
(-0.00195774 0.00125602 0)
(-0.00244021 0.00141384 0)
(-0.00297072 0.00156056 0)
(-0.00354592 0.0016953 0)
(-0.00416218 0.00181761 0)
(-0.00481573 0.00192734 0)
(-0.00550273 0.00202457 0)
(-0.00621933 0.00210951 0)
(-0.00696171 0.0021825 0)
(-0.00772611 0.00224394 0)
(-0.00850887 0.00229427 0)
(-0.00930646 0.00233396 0)
(-0.0101154 0.00236347 0)
(-0.0109325 0.00238326 0)
(-0.0117544 0.00239374 0)
(-0.0125781 0.00239534 0)
(-0.0134006 0.00238842 0)
(-0.0142192 0.00237332 0)
(-0.015031 0.00235034 0)
(-0.0158333 0.00231976 0)
(-0.0166236 0.0022818 0)
(-0.0173994 0.00223668 0)
(-0.0181581 0.00218456 0)
(-0.0188975 0.0021256 0)
(-0.0196151 0.00205992 0)
(-0.0203086 0.00198764 0)
(-0.0209759 0.00190885 0)
(-0.0216146 0.00182366 0)
(-0.0222225 0.00173214 0)
(-0.0227976 0.00163439 0)
(-0.0233378 0.00153052 0)
(-0.0238409 0.00142065 0)
(-0.024305 0.0013049 0)
(-0.0247281 0.00118343 0)
(-0.0251084 0.00105644 0)
(-0.025444 0.000924134 0)
(-0.0257333 0.000786777 0)
(-0.0259746 0.000644662 0)
(-0.0261664 0.000498129 0)
(-0.0263074 0.000347564 0)
(-0.0263963 0.000193402 0)
(-0.026432 3.61246e-05 0)
(-0.0264137 -0.000123733 0)
(-0.0263407 -0.000285584 0)
(-0.0262125 -0.000448793 0)
(-0.0260288 -0.000612676 0)
(-0.0257895 -0.000776501 0)
(-0.0254949 -0.000939494 0)
(-0.0251454 -0.00110084 0)
(-0.0247418 -0.00125968 0)
(-0.0242852 -0.00141515 0)
(-0.0237769 -0.00156633 0)
(-0.0232184 -0.0017123 0)
(-0.0226118 -0.00185212 0)
(-0.0219593 -0.00198487 0)
(-0.0212634 -0.00210962 0)
(-0.0205269 -0.00222545 0)
(-0.019753 -0.00233147 0)
(-0.018945 -0.00242684 0)
(-0.0181068 -0.00251073 0)
(-0.0172421 -0.00258239 0)
(-0.0163552 -0.00264112 0)
(-0.0154505 -0.0026863 0)
(-0.0145324 -0.00271739 0)
(-0.0136058 -0.00273392 0)
(-0.0126755 -0.00273553 0)
(-0.0117464 -0.00272196 0)
(-0.0108235 -0.00269306 0)
(-0.00991193 -0.00264879 0)
(-0.00901661 -0.00258924 0)
(-0.00814254 -0.0025146 0)
(-0.00729457 -0.00242522 0)
(-0.00647741 -0.00232157 0)
(-0.00569559 -0.00220426 0)
(-0.00495338 -0.00207406 0)
(-0.00425477 -0.00193188 0)
(-0.00360338 -0.00177884 0)
(-0.00300245 -0.00161621 0)
(-0.00245471 -0.00144551 0)
(-0.00196238 -0.00126851 0)
(-0.00152702 -0.00108727 0)
(-0.00114951 -0.000904248 0)
(-0.000829899 -0.00072235 0)
(-0.000567311 -0.000545063 0)
(-0.000359837 -0.000376605 0)
(-0.00020439 -0.000222114 0)
(-9.6562e-05 -8.78815e-05 0)
(-3.05016e-05 1.83693e-05 0)
(1.26278e-06 8.72206e-05 0)
(8.49772e-06 0.000107229 0)
(3.69234e-06 6.3577e-05 0)
(-4.22697e-06 -1.55873e-05 0)
(-3.97947e-05 5.32774e-05 0)
(-0.000129897 0.000191375 0)
(-0.000275853 0.000376131 0)
(-0.000480511 0.000590767 0)
(-0.000746606 0.000822318 0)
(-0.00107525 0.00106091 0)
(-0.00146626 0.00129913 0)
(-0.00191839 0.00153154 0)
(-0.00242959 0.00175418 0)
(-0.00299708 0.00196427 0)
(-0.00361759 0.00215993 0)
(-0.00428743 0.00233996 0)
(-0.00500267 0.00250369 0)
(-0.00575919 0.00265085 0)
(-0.00655279 0.00278146 0)
(-0.00737924 0.00289574 0)
(-0.00823433 0.00299408 0)
(-0.0091139 0.00307694 0)
(-0.0100139 0.00314487 0)
(-0.0109303 0.00319845 0)
(-0.0118594 0.00323825 0)
(-0.0127973 0.00326487 0)
(-0.0137405 0.00327883 0)
(-0.0146856 0.00328068 0)
(-0.015629 0.0032709 0)
(-0.0165677 0.00324992 0)
(-0.0174984 0.00321816 0)
(-0.0184182 0.00317596 0)
(-0.0193239 0.00312365 0)
(-0.0202129 0.00306149 0)
(-0.0210822 0.00298972 0)
(-0.0219291 0.00290856 0)
(-0.0227509 0.00281819 0)
(-0.0235449 0.00271875 0)
(-0.0243087 0.0026104 0)
(-0.0250396 0.00249327 0)
(-0.0257352 0.0023675 0)
(-0.0263929 0.00223323 0)
(-0.0270105 0.0020906 0)
(-0.0275855 0.0019398 0)
(-0.0281157 0.001781 0)
(-0.0285989 0.00161445 0)
(-0.029033 0.0014404 0)
(-0.0294158 0.00125917 0)
(-0.0297456 0.00107111 0)
(-0.0300205 0.000876632 0)
(-0.0302387 0.000676216 0)
(-0.0303988 0.00047039 0)
(-0.0304994 0.00025975 0)
(-0.0305393 4.49585e-05 0)
(-0.0305175 -0.000173253 0)
(-0.0304333 -0.000394087 0)
(-0.030286 -0.000616677 0)
(-0.0300755 -0.000840095 0)
(-0.0298017 -0.00106335 0)
(-0.0294649 -0.00128539 0)
(-0.0290655 -0.00150511 0)
(-0.0286046 -0.00172137 0)
(-0.0280833 -0.00193297 0)
(-0.0275031 -0.0021387 0)
(-0.0268659 -0.00233731 0)
(-0.0261738 -0.00252754 0)
(-0.0254294 -0.00270815 0)
(-0.0246356 -0.00287787 0)
(-0.0237956 -0.00303549 0)
(-0.022913 -0.00317981 0)
(-0.0219915 -0.00330968 0)
(-0.0210353 -0.00342403 0)
(-0.0200489 -0.00352182 0)
(-0.0190369 -0.00360214 0)
(-0.0180043 -0.00366413 0)
(-0.0169562 -0.00370709 0)
(-0.015898 -0.00373038 0)
(-0.014835 -0.00373354 0)
(-0.0137729 -0.00371622 0)
(-0.0127173 -0.00367823 0)
(-0.0116737 -0.00361952 0)
(-0.010648 -0.00354021 0)
(-0.0096455 -0.00344061 0)
(-0.00867179 -0.00332118 0)
(-0.0077321 -0.00318257 0)
(-0.0068315 -0.00302563 0)
(-0.00597477 -0.00285142 0)
(-0.00516634 -0.0026612 0)
(-0.00441026 -0.00245649 0)
(-0.00371012 -0.00223903 0)
(-0.00306898 -0.00201088 0)
(-0.00248929 -0.00177443 0)
(-0.00197281 -0.00153246 0)
(-0.00152055 -0.00128819 0)
(-0.00113265 -0.00104544 0)
(-0.00080829 -0.000808703 0)
(-0.000545588 -0.000583303 0)
(-0.000341503 -0.000375623 0)
(-0.000191722 -0.000193323 0)
(-9.05422e-05 -4.5639e-05 0)
(-3.07315e-05 5.6335e-05 0)
(-3.42926e-06 9.92676e-05 0)
(1.65384e-06 6.60319e-05 0)
(-7.09826e-06 8.25556e-06 0)
(-5.71344e-05 0.000130414 0)
(-0.000176645 0.000326671 0)
(-0.000362921 0.000573309 0)
(-0.000616625 0.000852304 0)
(-0.000939372 0.00114946 0)
(-0.0013314 0.00145371 0)
(-0.00179181 0.00175663 0)
(-0.00231884 0.00205186 0)
(-0.00290997 0.00233473 0)
(-0.00356209 0.00260187 0)
(-0.00427158 0.00285093 0)
(-0.00503445 0.00308041 0)
(-0.00584643 0.0032894 0)
(-0.00670311 0.00347749 0)
(-0.00759995 0.00364464 0)
(-0.00853239 0.00379106 0)
(-0.00949587 0.00391717 0)
(-0.0104859 0.00402351 0)
(-0.011498 0.00411071 0)
(-0.0125279 0.00417947 0)
(-0.0135714 0.00423047 0)
(-0.0146244 0.00426442 0)
(-0.0156829 0.00428201 0)
(-0.0167432 0.00428386 0)
(-0.0178013 0.00427058 0)
(-0.0188539 0.00424274 0)
(-0.0198973 0.00420082 0)
(-0.0209281 0.00414529 0)
(-0.0219432 0.00407654 0)
(-0.0229392 0.00399492 0)
(-0.023913 0.00390076 0)
(-0.0248615 0.0037943 0)
(-0.0257818 0.00367581 0)
(-0.0266708 0.00354548 0)
(-0.0275258 0.00340352 0)
(-0.0283438 0.00325011 0)
(-0.0291221 0.00308545 0)
(-0.0298579 0.00290971 0)
(-0.0305486 0.00272312 0)
(-0.0311916 0.0025259 0)
(-0.0317843 0.00231832 0)
(-0.0323243 0.0021007 0)
(-0.0328093 0.00187339 0)
(-0.0332369 0.0016368 0)
(-0.0336052 0.00139141 0)
(-0.0339119 0.00113777 0)
(-0.0341554 0.000876489 0)
(-0.0343339 0.000608275 0)
(-0.0344459 0.000333906 0)
(-0.0344902 5.42461e-05 0)
(-0.0344655 -0.000229753 0)
(-0.0343712 -0.000517054 0)
(-0.0342066 -0.000806536 0)
(-0.0339714 -0.001097 0)
(-0.0336657 -0.00138715 0)
(-0.0332897 -0.00167565 0)
(-0.0328441 -0.00196106 0)
(-0.0323298 -0.00224192 0)
(-0.0317482 -0.00251667 0)
(-0.031101 -0.00278377 0)
(-0.0303902 -0.0030416 0)
(-0.0296182 -0.00328856 0)
(-0.028788 -0.00352304 0)
(-0.0279026 -0.00374342 0)
(-0.0269656 -0.00394814 0)
(-0.0259809 -0.00413566 0)
(-0.0249528 -0.00430453 0)
(-0.0238857 -0.00445334 0)
(-0.0227847 -0.00458079 0)
(-0.0216549 -0.00468569 0)
(-0.0205018 -0.00476698 0)
(-0.0193309 -0.00482372 0)
(-0.0181481 -0.00485514 0)
(-0.0169595 -0.00486063 0)
(-0.0157711 -0.00483974 0)
(-0.0145892 -0.00479225 0)
(-0.0134199 -0.00471812 0)
(-0.0122695 -0.0046175 0)
(-0.011144 -0.0044908 0)
(-0.0100495 -0.00433864 0)
(-0.00899179 -0.00416187 0)
(-0.00797633 -0.00396162 0)
(-0.00700841 -0.00373924 0)
(-0.00609289 -0.00349641 0)
(-0.00523421 -0.00323507 0)
(-0.00443631 -0.0029575 0)
(-0.00370255 -0.00266635 0)
(-0.00303564 -0.00236468 0)
(-0.00243756 -0.00205601 0)
(-0.0019095 -0.00174441 0)
(-0.00145173 -0.00143461 0)
(-0.00106358 -0.00113211 0)
(-0.000743316 -0.000843374 0)
(-0.000488059 -0.000575962 0)
(-0.000293745 -0.000338828 0)
(-0.000154995 -0.000142584 0)
(-6.50057e-05 2.15462e-07 0)
(-1.60803e-05 7.46918e-05 0)
(-4.48856e-07 6.20514e-05 0)
(-9.86295e-06 4.09686e-05 0)
(-7.42208e-05 0.000230853 0)
(-0.000223225 0.000497113 0)
(-0.000450191 0.000815491 0)
(-0.000753523 0.0011672 0)
(-0.00113361 0.00153713 0)
(-0.00158968 0.00191335 0)
(-0.00212001 0.00228658 0)
(-0.00272217 0.00264972 0)
(-0.00339314 0.00299746 0)
(-0.00412938 0.00332591 0)
(-0.00492687 0.00363231 0)
(-0.00578131 0.00391484 0)
(-0.00668811 0.00417239 0)
(-0.00764253 0.00440441 0)
(-0.00863975 0.00461077 0)
(-0.00967488 0.00479169 0)
(-0.0107431 0.0049476 0)
(-0.0118395 0.00507911 0)
(-0.0129594 0.00518695 0)
(-0.0140982 0.00527189 0)
(-0.0152513 0.00533477 0)
(-0.0164143 0.0053764 0)
(-0.0175829 0.00539758 0)
(-0.0187529 0.00539908 0)
(-0.0199203 0.00538162 0)
(-0.0210813 0.00534588 0)
(-0.0222319 0.00529245 0)
(-0.0233684 0.00522189 0)
(-0.0244873 0.0051347 0)
(-0.025585 0.0050313 0)
(-0.0266581 0.00491209 0)
(-0.0277032 0.0047774 0)
(-0.028717 0.00462753 0)
(-0.0296963 0.00446277 0)
(-0.0306379 0.00428337 0)
(-0.0315386 0.00408957 0)
(-0.0323955 0.00388162 0)
(-0.0332056 0.00365977 0)
(-0.0339659 0.0034243 0)
(-0.0346736 0.00317552 0)
(-0.0353259 0.00291377 0)
(-0.0359201 0.00263946 0)
(-0.0364538 0.00235305 0)
(-0.0369244 0.00205506 0)
(-0.0373295 0.00174612 0)
(-0.0376671 0.0014269 0)
(-0.0379351 0.00109821 0)
(-0.0381317 0.000760918 0)
(-0.0382553 0.00041601 0)
(-0.0383044 6.45748e-05 0)
(-0.0382778 -0.000292193 0)
(-0.0381748 -0.000652996 0)
(-0.0379947 -0.00101643 0)
(-0.037737 -0.00138099 0)
(-0.037402 -0.00174509 0)
(-0.0369898 -0.00210702 0)
(-0.0365012 -0.00246502 0)
(-0.0359374 -0.00281725 0)
(-0.0352996 -0.0031618 0)
(-0.0345897 -0.00349673 0)
(-0.0338101 -0.00382004 0)
(-0.0329634 -0.00412974 0)
(-0.0320525 -0.00442381 0)
(-0.0310809 -0.00470029 0)
(-0.0300526 -0.0049572 0)
(-0.0289717 -0.00519267 0)
(-0.0278429 -0.00540486 0)
(-0.0266711 -0.00559206 0)
(-0.0254616 -0.00575265 0)
(-0.02422 -0.00588515 0)
(-0.0229523 -0.00598825 0)
(-0.0216645 -0.00606079 0)
(-0.020363 -0.00610182 0)
(-0.0190543 -0.00611058 0)
(-0.0177452 -0.00608656 0)
(-0.0164421 -0.00602945 0)
(-0.0151521 -0.00593922 0)
(-0.0138816 -0.0058161 0)
(-0.0126374 -0.00566058 0)
(-0.011426 -0.00547345 0)
(-0.0102536 -0.00525581 0)
(-0.00912618 -0.00500904 0)
(-0.00804954 -0.00473489 0)
(-0.00702891 -0.00443542 0)
(-0.00606911 -0.00411308 0)
(-0.00517443 -0.0037707 0)
(-0.00434853 -0.00341157 0)
(-0.0035944 -0.00303943 0)
(-0.00291427 -0.00265861 0)
(-0.00230956 -0.00227402 0)
(-0.00178075 -0.00189135 0)
(-0.00132737 -0.00151711 0)
(-0.000947925 -0.00115881 0)
(-0.000639815 -0.000825183 0)
(-0.000399333 -0.000526366 0)
(-0.000221549 -0.000274198 0)
(-0.000100216 -8.24707e-05 0)
(-2.89255e-05 3.27256e-05 0)
(-2.52454e-06 5.14645e-05 0)
(-1.25013e-05 8.23231e-05 0)
(-9.08556e-05 0.000354346 0)
(-0.000269009 0.000702614 0)
(-0.000536446 0.0011028 0)
(-0.000889349 0.0015357 0)
(-0.00132683 0.00198566 0)
(-0.00184701 0.0024401 0)
(-0.00244724 0.00288911 0)
(-0.00312439 0.00332501 0)
(-0.00387483 0.00374196 0)
(-0.00469451 0.00413561 0)
(-0.00557902 0.00450288 0)
(-0.00652367 0.00484166 0)
(-0.00752355 0.00515064 0)
(-0.0085736 0.00542916 0)
(-0.00966871 0.00567701 0)
(-0.0108037 0.00589441 0)
(-0.0119734 0.0060818 0)
(-0.0131728 0.00623987 0)
(-0.0143967 0.00636942 0)
(-0.0156404 0.00647133 0)
(-0.0168988 0.00654655 0)
(-0.0181674 0.00659602 0)
(-0.0194416 0.00662066 0)
(-0.0207169 0.00662136 0)
(-0.0219889 0.00659897 0)
(-0.0232535 0.00655427 0)
(-0.0245066 0.00648797 0)
(-0.0257441 0.00640074 0)
(-0.0269622 0.00629315 0)
(-0.028157 0.00616573 0)
(-0.0293249 0.00601895 0)
(-0.0304622 0.00585321 0)
(-0.0315653 0.0056689 0)
(-0.0326307 0.00546634 0)
(-0.0336551 0.00524588 0)
(-0.034635 0.0050078 0)
(-0.0355672 0.00475243 0)
(-0.0364483 0.00448008 0)
(-0.0372753 0.00419111 0)
(-0.0380452 0.0038859 0)
(-0.0387548 0.00356491 0)
(-0.0394013 0.00322862 0)
(-0.039982 0.00287761 0)
(-0.0404941 0.00251255 0)
(-0.0409353 0.00213419 0)
(-0.0413031 0.00174339 0)
(-0.0415954 0.0013411 0)
(-0.0418102 0.000928428 0)
(-0.0419458 0.000506563 0)
(-0.0420006 7.68376e-05 0)
(-0.0419734 -0.000359291 0)
(-0.0418633 -0.000800242 0)
(-0.0416695 -0.00124431 0)
(-0.0413917 -0.00168967 0)
(-0.04103 -0.00213437 0)
(-0.0405846 -0.00257637 0)
(-0.0400564 -0.00301352 0)
(-0.0394464 -0.00344359 0)
(-0.0387563 -0.00386427 0)
(-0.0379879 -0.00427321 0)
(-0.0371438 -0.004668 0)
(-0.0362267 -0.00504622 0)
(-0.0352399 -0.00540545 0)
(-0.034187 -0.00574328 0)
(-0.0330723 -0.00605736 0)
(-0.0319002 -0.0063454 0)
(-0.0306758 -0.0066052 0)
(-0.0294042 -0.00683468 0)
(-0.0280913 -0.00703188 0)
(-0.026743 -0.00719503 0)
(-0.0253656 -0.00732253 0)
(-0.0239658 -0.00741301 0)
(-0.0225502 -0.00746529 0)
(-0.0211261 -0.00747849 0)
(-0.0197004 -0.00745196 0)
(-0.0182803 -0.00738537 0)
(-0.0168732 -0.00727868 0)
(-0.0154861 -0.00713217 0)
(-0.0141263 -0.00694646 0)
(-0.0128007 -0.00672252 0)
(-0.0115161 -0.00646168 0)
(-0.0102789 -0.00616565 0)
(-0.00909522 -0.00583653 0)
(-0.00797078 -0.00547685 0)
(-0.00691077 -0.00508956 0)
(-0.00591984 -0.0046781 0)
(-0.00500198 -0.00424639 0)
(-0.00416048 -0.00379894 0)
(-0.00339787 -0.00334085 0)
(-0.0027158 -0.00287793 0)
(-0.00211506 -0.00241678 0)
(-0.00159545 -0.00196492 0)
(-0.00115576 -0.00153091 0)
(-0.000793758 -0.00112455 0)
(-0.000506184 -0.000757068 0)
(-0.000288632 -0.000441381 0)
(-0.000135478 -0.000192309 0)
(-4.16403e-05 -2.68667e-05 0)
(-4.52626e-06 3.43074e-05 0)
(-1.50107e-05 0.000132028 0)
(-0.000106944 0.000500396 0)
(-0.000313635 0.000942707 0)
(-0.00062095 0.00143485 0)
(-0.00102292 0.00195755 0)
(-0.00151736 0.00249484 0)
(-0.00210126 0.00303375 0)
(-0.002771 0.00356395 0)
(-0.00352265 0.00407731 0)
(-0.00435193 0.00456759 0)
(-0.00525424 0.00503011 0)
(-0.00622472 0.00546148 0)
(-0.00725827 0.00585938 0)
(-0.00834963 0.00622234 0)
(-0.00949343 0.00654959 0)
(-0.0106842 0.00684089 0)
(-0.0119166 0.00709642 0)
(-0.0131851 0.0073167 0)
(-0.0144844 0.00750244 0)
(-0.0158092 0.00765454 0)
(-0.0171542 0.007774 0)
(-0.0185145 0.00786186 0)
(-0.0198849 0.00791918 0)
(-0.0212608 0.00794702 0)
(-0.0226373 0.0079464 0)
(-0.0240099 0.00791827 0)
(-0.0253741 0.00786353 0)
(-0.0267255 0.00778302 0)
(-0.02806 0.00767749 0)
(-0.0293733 0.00754762 0)
(-0.0306613 0.00739403 0)
(-0.0319202 0.00721726 0)
(-0.033146 0.00701781 0)
(-0.0343349 0.00679612 0)
(-0.0354832 0.0065526 0)
(-0.0365871 0.00628765 0)
(-0.0376432 0.00600164 0)
(-0.0386479 0.00569494 0)
(-0.0395977 0.00536797 0)
(-0.0404892 0.00502114 0)
(-0.0413192 0.00465495 0)
(-0.0420844 0.00426992 0)
(-0.0427818 0.00386667 0)
(-0.0434084 0.0034459 0)
(-0.0439615 0.00300841 0)
(-0.0444382 0.00255511 0)
(-0.0448361 0.00208703 0)
(-0.0451529 0.00160533 0)
(-0.0453865 0.00111132 0)
(-0.0455349 0.000606419 0)
(-0.0455967 9.22303e-05 0)
(-0.0455703 -0.000429514 0)
(-0.0454549 -0.00095693 0)
(-0.0452496 -0.00148799 0)
(-0.0449541 -0.00202051 0)
(-0.0445683 -0.0025522 0)
(-0.0440927 -0.00308062 0)
(-0.0435279 -0.00360321 0)
(-0.0428753 -0.00411735 0)
(-0.0421364 -0.00462028 0)
(-0.0413134 -0.00510921 0)