/*--------------------------------*- C++ -*----------------------------------*\
| =========                 |                                                 |
| \\      /  F ield         | OpenFOAM: The Open Source CFD Toolbox           |
|  \\    /   O peration     | Version:  2512                                  |
|   \\  /    A nd           | Website:  www.openfoam.com                      |
|    \\/     M anipulation  |                                                 |
\*---------------------------------------------------------------------------*/
FoamFile
{
    version     2.0;
    format      ascii;
    arch        "LSB;label=32;scalar=64";
    class       volScalarField;
    location    "0.14";
    object      p;
}
// * * * * * * * * * * * * * * * * * * * * * * * * * * * * * * * * * * * * * //

dimensions      [0 2 -2 0 0 0 0];

internalField   nonuniform List<scalar> 
10000
(
1.31484e-08
3.73948e-06
-1.45329e-05
-5.68732e-05
-0.000118145
-0.000191779
-0.000272558
-0.000356225
-0.000439299
-0.000518916
-0.000592812
-0.000659239
-0.000716809
-0.000764397
-0.000801118
-0.000826306
-0.000839498
-0.000840385
-0.000828777
-0.000804561
-0.00076769
-0.0007182
-0.000656183
-0.000581764
-0.00049509
-0.000396334
-0.000285704
-0.000163431
-2.97512e-05
0.000115111
0.000270926
0.000437441
0.000614375
0.000801441
0.000998348
0.0012048
0.00142051
0.00164515
0.00187837
0.00211982
0.00236909
0.00262579
0.00288953
0.00315987
0.00343633
0.0037184
0.00400554
0.00429722
0.00459286
0.00489188
0.00519363
0.00549747
0.00580267
0.00610854
0.00641432
0.00671928
0.00702263
0.00732359
0.00762134
0.00791504
0.00820386
0.00848694
0.00876345
0.00903253
0.00929332
0.00954499
0.00978671
0.0100177
0.0102371
0.0104442
0.0106383
0.0108188
0.0109849
0.0111362
0.0112721
0.0113922
0.0114962
0.0115838
0.0116549
0.0117094
0.0117474
0.011769
0.0117746
0.0117646
0.0117396
0.0117004
0.0116479
0.0115833
0.0115079
0.0114235
0.0113319
0.0112354
0.0111366
0.0110388
0.0109454
0.010861
0.0107902
0.0107385
0.0107119
0.0107109
1.01472e-05
1.33754e-05
-3.2803e-06
-3.89934e-05
-8.93091e-05
-0.000149949
-0.000216932
-0.000286782
-0.000356563
-0.000423748
-0.000486221
-0.000542287
-0.000590599
-0.000630061
-0.000659781
-0.000679046
-0.000687321
-0.000684242
-0.000669557
-0.000643091
-0.000604741
-0.000554491
-0.000492385
-0.000418506
-0.000332954
-0.00023585
-0.00012735
-7.65728e-06
0.000123018
0.000264475
0.000416512
0.000578897
0.000751372
0.000933665
0.00112549
0.00132658
0.00153662
0.00175533
0.00198236
0.00221736
0.00245993
0.00270968
0.00296622
0.00322912
0.00349791
0.00377211
0.00405116
0.00433454
0.00462169
0.00491203
0.00520494
0.00549977
0.00579585
0.00609247
0.00638892
0.00668446
0.00697836
0.00726984
0.00755813
0.00784243
0.00812192
0.0083958
0.00866326
0.00892348
0.00917566
0.00941901
0.00965275
0.00987611
0.0100884
0.0102888
0.0104768
0.0106517
0.010813
0.0109601
0.0110925
0.01121
0.0113122
0.011399
0.0114702
0.0115258
0.0115659
0.0115908
0.0116007
0.0115963
0.0115779
0.0115466
0.0115032
0.0114488
0.0113849
0.0113129
0.0112348
0.0111526
0.0110688
0.0109861
0.0109078
0.0108372
0.010778
0.0107343
0.0107108
0.0107099
4.84218e-05
4.57711e-05
2.6444e-05
-7.44912e-06
-5.26115e-05
-0.000106032
-0.000164628
-0.000225557
-0.00028635
-0.00034484
-0.000399124
-0.000447608
-0.000489008
-0.000522289
-0.00054659
-0.000561203
-0.000565577
-0.000559311
-0.000542118
-0.000513787
-0.000474182
-0.000423249
-0.000361001
-0.000287482
-0.00020276
-0.000106926
-1.07898e-07
0.000117528
0.000245797
0.000384521
0.000533508
0.00069254
0.00086138
0.00103977
0.00122746
0.00142416
0.00162958
0.00184344
0.0020654
0.00229511
0.00253221
0.00277629
0.00302696
0.0032838
0.00354637
0.00381415
0.00408664
0.0043633
0.00464359
0.00492692
0.00521272
0.00550032
0.00578908
0.00607831
0.00636731
0.00665537
0.00694176
0.00722573
0.00750655
0.00778343
0.00805558
0.00832224
0.0085826
0.00883589
0.00908134
0.00931819
0.00954571
0.00976317
0.00996988
0.0101652
0.0103484
0.010519
0.0106765
0.0108204
0.0109502
0.0110657
0.0111666
0.0112527
0.0113239
0.0113804
0.0114222
0.0114496
0.0114629
0.0114626
0.0114493
0.0114239
0.0113872
0.0113404
0.0112848
0.0112218
0.0111533
0.0110811
0.0110074
0.0109348
0.0108658
0.0108034
0.0107506
0.0107104
0.010687
0.0106832
0.000109166
9.61986e-05
7.12215e-05
3.56418e-05
-8.44068e-06
-5.87294e-05
-0.000112826
-0.000168395
-0.000223352
-0.000275873
-0.000324316
-0.000367246
-0.000403472
-0.000432016
-0.000452064
-0.000462955
-0.000464166
-0.000455285
-0.000435997
-0.00040608
-0.000365392
-0.000313858
-0.000251451
-0.000178183
-9.41035e-05
7.0649e-07
0.000106137
0.000222051
0.000348299
0.000484724
0.000631141
0.000787337
0.000953082
0.00112815
0.00131229
0.00150524
0.00170673
0.00191645
0.00213407
0.00235927
0.00259169
0.00283094
0.00307662
0.00332832
0.00358559
0.00384795
0.00411488
0.00438587
0.00466038
0.00493785
0.00521769
0.00549926
0.00578193
0.00606502
0.00634785
0.00662973
0.00690994
0.00718777
0.00746247
0.0077333
0.00799948
0.00826026
0.00851488
0.00876257
0.0090026
0.00923424
0.00945676
0.00966949
0.00987175
0.0100629
0.0102424
0.0104096
0.0105641
0.0107054
0.0108331
0.010947
0.0110468
0.0111324
0.0112038
0.0112609
0.011304
0.0113332
0.0113491
0.011352
0.0113426
0.0113216
0.01129
0.0112488
0.0111993
0.0111428
0.011081
0.0110156
0.0109486
0.0108822
0.0108186
0.0107603
0.0107098
0.0106698
0.010643
0.0106316
0.000184725
0.000159079
0.000126548
8.73272e-05
4.21115e-05
-7.29991e-06
-5.90302e-05
-0.000111227
-0.000162155
-0.000210264
-0.000254179
-0.000292676
-0.000324685
-0.000349293
-0.000365749
-0.000373452
-0.000371911
-0.000360724
-0.000339571
-0.000308228
-0.000266557
-0.000214472
-0.000151915
-7.88702e-05
4.63127e-06
9.85146e-05
0.000202681
0.000317017
0.000441401
0.000575696
0.000719732
0.000873298
0.00103617
0.00120814
0.00138899
0.00157845
0.00177627
0.00198214
0.00219574
0.00241675
0.00264482
0.00287957
0.00312063
0.00336758
0.00361997
0.00387732
0.00413913
0.00440491
0.00467413
0.00494623
0.00522064
0.00549674
0.00577389
0.00605142
0.00632868
0.006605
0.00687968
0.00715202
0.00742127
0.00768671
0.0079476
0.00820318
0.00845271
0.00869547
0.00893073
0.00915778
0.00937593
0.00958451
0.00978289
0.00997044
0.0101466
0.0103109
0.0104627
0.0106018
0.0107277
0.0108402
0.0109391
0.0110242
0.0110956
0.0111533
0.0111974
0.0112283
0.0112462
0.0112518
0.0112455
0.0112282
0.0112007
0.011164
0.0111193
0.0110679
0.0110112
0.0109508
0.0108885
0.0108261
0.0107656
0.0107091
0.0106587
0.0106163
0.0105836
0.010561
0.000270497
0.000230631
0.000189196
0.000144898
9.68429e-05
4.65178e-05
-4.57907e-06
-5.50485e-05
-0.000103492
-0.000148604
-0.000189232
-0.00022435
-0.000253034
-0.000274473
-0.000287996
-0.000293055
-0.000289195
-0.000276036
-0.00025328
-0.000220709
-0.000178186
-0.000125615
-6.29277e-05
9.90751e-06
9.28684e-05
0.000185896
0.000288909
0.000401812
0.000524496
0.000656836
0.000798672
0.00094981
0.00111005
0.00127918
0.00145699
0.00164324
0.00183767
0.00203999
0.00224989
0.00246705
0.00269113
0.00292177
0.00315859
0.00340119
0.00364913
0.00390192
0.0041591
0.00442016
0.0046846
0.00495187
0.00522141
0.0054926
0.00576481
0.00603741
0.00630974
0.00658115
0.00685095
0.00711846
0.00738295
0.00764369
0.00789996
0.00815102
0.00839616
0.00863465
0.0088658
0.00908891
0.0093033
0.00950834
0.00970338
0.00988785
0.0100612
0.0102229
0.0103725
0.0105097
0.0106341
0.0107454
0.0108434
0.0109281
0.0109995
0.0110576
0.0111026
0.0111347
0.0111544
0.0111621
0.0111583
0.0111439
0.0111195
0.0110863
0.0110452
0.0109975
0.0109444
0.0108874
0.010828
0.0107679
0.0107086
0.0106519
0.0105995
0.0105531
0.0105125
0.0104768
0.000362343
0.000307539
0.000256314
0.00020587
0.000153687
0.000101007
4.90872e-05
-1.04637e-06
-4.83226e-05
-9.16866e-05
-0.000130174
-0.000162915
-0.000189134
-0.000208153
-0.000219388
-0.000222343
-0.000216601
-0.000201823
-0.000177745
-0.000144169
-0.000100948
-4.79805e-05
1.48058e-05
8.74348e-05
0.000169887
0.000262122
0.000364081
0.000475685
0.000596831
0.000727398
0.000867231
0.00101615
0.00117398
0.00134053
0.0015156
0.00169894
0.00189029
0.00208938
0.00229592
0.00250959
0.00273008
0.00295701
0.00319002
0.00342871
0.00367265
0.00392137
0.00417441
0.00443129
0.0046915
0.00495451
0.00521976
0.00548664
0.00575456
0.00602286
0.00629092
0.0065581
0.00682371
0.00708709
0.00734751
0.00760427
0.00785663
0.00810389
0.00834533
0.00858025
0.00880796
0.00902777
0.00923905
0.00944113
0.00963342
0.00981534
0.00998635
0.010146
0.0102938
0.0104293
0.0105524
0.0106627
0.0107601
0.0108445
0.0109158
0.0109742
0.0110198
0.0110529
0.0110738
0.0110831
0.0110812
0.0110688
0.0110468
0.011016
0.0109774
0.0109322
0.0108813
0.0108263
0.0107683
0.0107088
0.0106491
0.0105906
0.0105348
0.0104829
0.0104333
0.0103836
0.000456651
0.000386795
0.000325278
0.000267969
0.00021077
0.000154676
0.000100788
4.98597e-05
2.66981e-06
-3.99694e-05
-7.72694e-05
-0.000108506
-0.000133043
-0.000150326
-0.00015986
-0.000161209
-0.000154003
-0.00013795
-0.000112828
-7.84588e-05
-3.46959e-05
1.85677e-05
8.13957e-05
0.000153803
0.000235771
0.000327273
0.000428267
0.000538685
0.000658431
0.000787386
0.000925404
0.00107232
0.00122797
0.00139218
0.00156476
0.00174547
0.00193405
0.00213023
0.00233374
0.00254429
0.00276155
0.00298517
0.00321479
0.00345
0.0036904
0.00393552
0.00418493
0.00443813
0.00469465
0.00495396
0.0052155
0.00547868
0.0057429
0.00600754
0.00627198
0.00653558
0.00679769
0.00705761
0.00731465
0.0075681
0.00781724
0.00806137
0.00829978
0.00853179
0.00875671
0.00897387
0.00918263
0.00938234
0.00957242
0.0097523
0.00992145
0.0100794
0.0102257
0.01036
0.0104821
0.0105916
0.0106884
0.0107725
0.0108438
0.0109023
0.0109484
0.0109821
0.011004
0.0110143
0.0110137
0.0110028
0.0109823
0.0109531
0.010916
0.0108721
0.0108224
0.010768
0.0107101
0.0106499
0.0105885
0.010527
0.0104665
0.0104084
0.0103492
0.0102852
0.000550368
0.000465741
0.000393758
0.000329128
0.000266314
0.000206076
0.000149368
9.67423e-05
4.87488e-05
5.99656e-06
-3.09031e-05
-6.13792e-05
-8.49228e-05
-0.000101079
-0.000109437
-0.000109631
-0.000101354
-8.43613e-05
-5.84635e-05
-2.35008e-05
2.06603e-05
7.41136e-05
0.000136912
0.000209066
0.000290562
0.000381382
0.000481493
0.00059083
0.000709298
0.000836785
0.000973158
0.00111827
0.00127196
0.00143407
0.00160442
0.00178276
0.00196885
0.00216244
0.00236326
0.00257103
0.00278544
0.00300613
0.00323276
0.00346492
0.00370222
0.00394422
0.00419047
0.00444052
0.00469388
0.00495003
0.00520843
0.00546849
0.00572962
0.00599122
0.00625266
0.00651333
0.00677257
0.0070297
0.00728402
0.00753482
0.0077814
0.00802306
0.00825909
0.00848883
0.00871159
0.0089267
0.00913352
0.00933142
0.00951982
0.00969814
0.00986588
0.0100226
0.0101678
0.0103012
0.0104224
0.0105313
0.0106278
0.0107116
0.0107828
0.0108414
0.0108877
0.0109219
0.0109443
0.0109553
0.0109555
0.0109454
0.0109257
0.0108973
0.0108609
0.0108174
0.0107678
0.0107131
0.0106542
0.0105923
0.0105281
0.0104626
0.0103968
0.0103318
0.0102627
0.0101849
0.000640906
0.000542067
0.000459712
0.000387508
0.000318675
0.000253795
0.00019366
0.000138644
8.91373e-05
4.55816e-05
8.41634e-06
-2.19357e-05
-4.50756e-05
-6.0635e-05
-6.82823e-05
-6.77333e-05
-5.87488e-05
-4.11285e-05
-1.47059e-05
2.06595e-05
6.50764e-05
0.000118613
0.000181308
0.000253174
0.000334203
0.000424383
0.000523682
0.000632032
0.000749337
0.000875493
0.00101038
0.00115388
0.00130583
0.00146607
0.00163442
0.00181066
0.00199455
0.00218585
0.0023843
0.00258964
0.00280156
0.0030197
0.00324373
0.00347327
0.00370791
0.00394725
0.00419084
0.00443824
0.00468896
0.0049425
0.00519831
0.00545583
0.00571447
0.00597362
0.0062327
0.00649107
0.00674808
0.00700305
0.00725529
0.00750409
0.00774876
0.00798858
0.00822288
0.00845097
0.00867217
0.00888582
0.00909128
0.00928791
0.00947513
0.00965239
0.00981916
0.00997499
0.0101195
0.0102522
0.010373
0.0104815
0.0105776
0.0106612
0.0107324
0.0107911
0.0108375
0.0108719
0.0108945
0.0109058
0.0109063
0.0108965
0.0108771
0.0108487
0.0108122
0.0107683
0.010718
0.0106621
0.0106014
0.0105368
0.0104691
0.010399
0.0103274
0.0102551
0.0101763
0.0100852
0.000726114
0.000613766
0.000521323
0.000441489
0.000366388
0.000296506
0.000232513
0.000174608
0.000123044
7.81175e-05
4.01248e-05
9.36372e-06
-1.3867e-05
-2.92849e-05
-3.66395e-05
-3.57226e-05
-2.63578e-05
-8.38503e-06
1.83369e-05
5.39226e-05
9.84497e-05
0.000151962
0.000214487
0.000286034
0.000366603
0.000456178
0.000554722
0.000662166
0.000778415
0.000903375
0.00103695
0.001179
0.00132941
0.001488
0.0016546
0.001829
0.00201096
0.00220026
0.00239668
0.00259992
0.0028097
0.00302568
0.00324751
0.00347483
0.00370726
0.0039444
0.00418582
0.00443107
0.00467967
0.00493113
0.00518491
0.00544046
0.00569718
0.00595451
0.00621182
0.00646851
0.00672392
0.00697737
0.00722816
0.0074756
0.00771897
0.00795759
0.00819077
0.00841782
0.00863806
0.00885083
0.00905548
0.00925138
0.00943794
0.00961459
0.00978084
0.00993621
0.0100803
0.0102127
0.0103332
0.0104415
0.0105375
0.010621
0.0106921
0.0107508
0.0107972
0.0108316
0.0108543
0.0108655
0.0108659
0.0108559
0.0108362
0.0108073
0.0107701
0.0107252
0.0106734
0.0106155
0.0105523
0.0104845
0.0104127
0.0103374
0.0102596
0.0101801
0.0100918
0.00998798
0.000804247
0.000679112
0.000576961
0.000489597
0.000408123
0.000333003
0.000264847
0.000203697
0.000149658
0.000102906
6.36276e-05
3.20209e-05
8.28803e-06
-7.37921e-06
-1.48112e-05
-1.38628e-05
-4.40558e-06
1.36813e-05
4.05029e-05
7.61382e-05
0.000120635
0.000174019
0.000236309
0.000307514
0.000387628
0.000476628
0.000574469
0.00068108
0.000796375
0.000920274
0.00105268
0.00119348
0.00134253
0.00149969
0.00166477
0.00183757
0.00201788
0.00220549
0.00240017
0.00260166
0.00280966
0.00302383
0.00324385
0.00346938
0.00370004
0.00393544
0.00417516
0.00441876
0.00466576
0.00491568
0.00516798
0.00542212
0.00567752
0.0059336
0.00618976
0.00644537
0.00669979
0.00695234
0.00720231
0.007449
0.00769171
0.00792974
0.00816241
0.00838901
0.00860888
0.00882133
0.00902572
0.00922141
0.0094078
0.00958434
0.00975049
0.0099058
0.0100499
0.0101823
0.0103028
0.0104111
0.0105071
0.0105906
0.0106617
0.0107203
0.0107666
0.0108009
0.0108233
0.0108343
0.0108342
0.0108236
0.0108031
0.0107732
0.0107347
0.0106882
0.0106343
0.0105739
0.0105076
0.010436
0.0103596
0.0102789
0.0101948
0.0101079
0.0100104
0.00989482
0.000873901
0.000736656
0.000625191
0.000530474
0.000442652
0.000362186
0.000289664
0.000224999
0.000168167
0.000119238
7.83161e-05
4.55085e-05
2.09264e-05
4.67378e-06
-3.15303e-06
-2.46002e-06
6.84174e-06
2.48311e-05
5.15695e-05
8.70982e-05
0.000131439
0.000184605
0.000246606
0.000317446
0.000397107
0.000485557
0.000582743
0.000688595
0.00080304
0.000926005
0.0010574
0.00119711
0.001345
0.00150092
0.00166471
0.00183617
0.0020151
0.00220131
0.00239458
0.00259463
0.00280119
0.00301393
0.00323255
0.00345669
0.00368602
0.00392014
0.00415864
0.00440108
0.00464699
0.00489589
0.00514726
0.00540056
0.00565521
0.00591063
0.00616623
0.00642138
0.00667542
0.00692767
0.00717743
0.00742399
0.00766665
0.0079047
0.00813745
0.0083642
0.00858427
0.00879698
0.00900165
0.00919765
0.00938437
0.00956124
0.00972774
0.00988339
0.0100278
0.0101605
0.0102813
0.0103898
0.010486
0.0105696
0.0106407
0.0106993
0.0107454
0.0107794
0.0108014
0.0108118
0.010811
0.0107995
0.0107778
0.0107465
0.0107062
0.0106575
0.0106011
0.0105377
0.0104677
0.0103919
0.0103107
0.0102244
0.0101338
0.0100398
0.0099335
0.0098068
0.000933898
0.000785178
0.000664779
0.000562921
0.000468856
0.000383027
0.000306012
0.000237637
0.000177777
0.000126416
8.35728e-05
4.92737e-05
2.3547e-05
6.42324e-06
-2.06077e-06
-1.85791e-06
7.0783e-06
2.47808e-05
5.12679e-05
8.65488e-05
0.000130626
0.000183499
0.000245169
0.000315623
0.000394833
0.000482754
0.000579334
0.000684505
0.000798203
0.000920361
0.00105089
0.00118968
0.00133659
0.00149148
0.0016542
0.00182456
0.00200239
0.00218749
0.00237964
0.00257859
0.00278406
0.00299574
0.00321334
0.00343652
0.00366495
0.00389825
0.004136
0.00437778
0.00462311
0.00487153
0.00512251
0.00537552
0.00562999
0.00588534
0.00614097
0.00639625
0.00665051
0.00690307
0.00715323
0.00740026
0.00764347
0.00788214
0.00811557
0.00834306
0.00856391
0.00877742
0.00898291
0.00917973
0.00936727
0.00954495
0.00971222
0.00986861
0.0100137
0.010147
0.0102683
0.0103773
0.0104738
0.0105577
0.0106289
0.0106874
0.0107333
0.0107669
0.0107883
0.010798
0.0107962
0.0107834
0.0107602
0.0107271
0.0106846
0.0106334
0.010574
0.0105071
0.0104332
0.0103529
0.0102666
0.0101745
0.0100775
0.00997642
0.00986177
0.00972472
0.000983195
0.000823623
0.000694671
0.000585896
0.00048572
0.00039456
0.000312991
0.000240779
0.00017773
0.000123747
7.87686e-05
4.27419e-05
1.56265e-05
-2.60223e-06
-1.19558e-05
-1.24362e-05
-4.04582e-06
1.32035e-05
3.92927e-05
7.42059e-05
0.000117929
0.000170449
0.000231751
0.000301804
0.000380564
0.000467981
0.000564006
0.000668579
0.000781635
0.000903111
0.00103292
0.00117094
0.00131705
0.00147111
0.00163299
0.00180251
0.0019795
0.00216378
0.00235512
0.00255329
0.00275801
0.00296901
0.00318598
0.00340862
0.00363659
0.00386952
0.004107
0.0043486
0.00459386
0.00484231
0.00509345
0.00534673
0.00560159
0.00585745
0.00611369
0.00636969
0.00662477
0.00687824
0.00712939
0.00737751
0.00762187
0.00786176
0.00809647
0.00832528
0.00854747
0.00876234
0.00896919
0.00916736
0.00935622
0.00953516
0.00970365
0.00986117
0.0100073
0.0101416
0.0102637
0.0103734
0.0104704
0.0105546
0.010626
0.0106844
0.0107302
0.0107633
0.010784
0.0107927
0.0107897
0.0107754
0.0107504
0.0107151
0.0106701
0.0106159
0.0105532
0.0104826
0.0104045
0.0103194
0.0102277
0.0101298
0.0100264
0.00991849
0.00979585
0.00964914
0.00102088
0.000851057
0.000713944
0.00059847
0.000492316
0.000395887
0.000309759
0.00023365
0.000167303
0.000110555
6.32691e-05
2.53273e-05
-3.36578e-06
-2.28808e-05
-3.32756e-05
-3.46039e-05
-2.69163e-05
-1.02632e-05
1.53075e-05
4.97582e-05
9.30576e-05
0.000145175
0.000206076
0.000275714
0.000354032
0.000440978
0.000536507
0.000640562
0.000753082
0.000873998
0.00100322
0.00114064
0.00128613
0.00143957
0.00160082
0.00176975
0.00194617
0.0021299
0.00232074
0.00251845
0.00272278
0.00293346
0.0031502
0.00337271
0.00360065
0.00383367
0.00407135
0.00431326
0.00455896
0.00480798
0.00505981
0.00531391
0.00556973
0.00582666
0.0060841
0.0063414
0.00659789
0.00685287
0.00710563
0.00735542
0.00760154
0.00784325
0.00807983
0.00831054
0.00853465
0.00875145
0.0089602
0.00916024
0.0093509
0.00953159
0.00970173
0.0098608
0.0100083
0.0101439
0.0102671
0.0103777
0.0104754
0.0105602
0.0106318
0.0106903
0.0107358
0.0107683
0.0107883
0.0107959
0.0107914
0.0107754
0.0107483
0.0107105
0.0106627
0.0106053
0.010539
0.0104643
0.0103817
0.0102916
0.0101945
0.0100907
0.00998104
0.00986642
0.00973616
0.00958039
0.00104616
0.000866649
0.00072175
0.000599799
0.000487802
0.000386189
0.000295538
0.000215511
0.000145797
8.61737e-05
3.64473e-05
-3.54967e-06
-3.39591e-05
-5.48991e-05
-6.64758e-05
-6.87918e-05
-6.19398e-05
-4.60006e-05
-2.10442e-05
1.28714e-05
5.56935e-05
0.000107369
0.000167843
0.000237057
0.000314948
0.000401465
0.000496563
0.000600186
0.000712271
0.000832745
0.00096152
0.00109849
0.00124354
0.00139655
0.00155742
0.00172599
0.0019021
0.00208557
0.00227621
0.0024738
0.00267808
0.00288881
0.00310571
0.00332851
0.00355686
0.00379041
0.00402875
0.00427147
0.00451811
0.00476821
0.00502127
0.00527675
0.00553408
0.00579266
0.00605188
0.00631107
0.00656957
0.00682665
0.00708161
0.00733369
0.00758217
0.00782631
0.00806535
0.00829855
0.00852517
0.00874444
0.00895565
0.00915808
0.00935106
0.00953397
0.00970621
0.00986724
0.0100166
0.0101537
0.0102783
0.0103901
0.0104888
0.0105741
0.0106461
0.0107047
0.0107499
0.010782
0.010801
0.0108074
0.0108013
0.0107834
0.0107539
0.0107134
0.0106625
0.0106017
0.0105315
0.0104524
0.0103651
0.0102699
0.0101673
0.0100576
0.00994167
0.00982053
0.00968298
0.00951868
0.00105837
0.000869656
0.00071731
0.00058911
0.000471427
0.00036473
0.000269603
0.000185659
0.000112534
4.99588e-05
-2.29981e-06
-4.44499e-05
-7.66785e-05
-9.91543e-05
-0.00011203
-0.000115449
-0.000109537
-9.44003e-05
-7.01304e-05
-3.68064e-05
5.49516e-06
5.66965e-05
0.000116726
0.000185518
0.000263007
0.000349144
0.00044388
0.000547157
0.000658905
0.000779054
0.000907517
0.00104419
0.00118898
0.00134178
0.00150248
0.00167094
0.001847
0.00203049
0.00222123
0.002419
0.00262359
0.00283475
0.00305221
0.0032757
0.00350489
0.00373942
0.00397889
0.00422289
0.00447098
0.00472269
0.00497751
0.00523491
0.00549431
0.00575511
0.00601667
0.00627834
0.00653943
0.00679923
0.00705699
0.00731197
0.00756343
0.00781059
0.00805271
0.008289
0.0085187
0.00874104
0.00895525
0.00916061
0.00935643
0.00954204
0.00971684
0.00988024
0.0100317
0.0101709
0.0102972
0.0104104
0.0105102
0.0105964
0.0106688
0.0107276
0.0107726
0.0108041
0.0108222
0.0108272
0.0108194
0.0107993
0.0107673
0.0107239
0.0106697
0.0106051
0.0105308
0.0104472
0.010355
0.0102546
0.0101464
0.0100306
0.00990856
0.00978105
0.00963649
0.00946411
0.00105694
0.000859429
0.000699937
0.000565709
0.000442507
0.000330827
0.000231274
0.000143421
6.68627e-05
1.29741e-06
-5.35459e-05
-9.79163e-05
-0.000132045
-0.000156149
-0.000170419
-0.00017503
-0.000170134
-0.000155864
-0.000132332
-9.96438e-05
-5.78998e-05
-7.19635e-06
5.23834e-05
0.000120767
0.00019789
0.000283699
0.000378143
0.000481157
0.000592669
0.000712608
0.000840894
0.000977437
0.00112215
0.00127493
0.00143568
0.00160426
0.00178052
0.00196431
0.00215545
0.00235374
0.00255898
0.00277093
0.00298934
0.00321392
0.00344437
0.00368033
0.00392139
0.00416716
0.00441719
0.00467101
0.00492813
0.00518799
0.00545002
0.0057136
0.00597809
0.00624282
0.00650711
0.00677021
0.00703139
0.00728989
0.00754494
0.00779575
0.00804155
0.00828154
0.00851493
0.00874091
0.0089587
0.00916755
0.00936673
0.00955555
0.00973338
0.0098996
0.0100537
0.0101951
0.0103235
0.0104384
0.0105395
0.0106267
0.0106999
0.0107588
0.0108037
0.0108346
0.0108517
0.0108553
0.0108457
0.0108233
0.0107886
0.0107421
0.0106843
0.0106158
0.0105371
0.0104489
0.0103516
0.0102457
0.0101318
0.0100101
0.0098819
0.00974814
0.00959678
0.00941668
0.00104136
0.000835408
0.000669032
0.000528971
0.000400398
0.000283834
0.000179908
8.81671e-05
8.17817e-06
-6.03895e-05
-0.000117847
-0.000164488
-0.000200583
-0.000226385
-0.00024212
-0.000247987
-0.000244162
-0.000230801
-0.000208048
-0.000176031
-0.000134872
-8.46794e-05
-2.55439e-05
4.24581e-05
0.000119258
0.000204797
0.000299017
0.00040185
0.000513222
0.000633066
0.000761313
0.000897881
0.00104269
0.00119565
0.00135666
0.0015256
0.00170232
0.00188668
0.00207851
0.00227765
0.00248388
0.00269698
0.00291671
0.00314279
0.00337492
0.00361273
0.00385585
0.00410385
0.00435631
0.00461276
0.0048727
0.00513556
0.00540077
0.00566769
0.00593568
0.00620407
0.00647214
0.00673917
0.0070044
0.00726704
0.0075263
0.00778139
0.00803151
0.00827582
0.0085135
0.00874374
0.0089657
0.0091786
0.00938169
0.00957424
0.00975558
0.00992508
0.0100822
0.0102263
0.010357
0.0104739
0.0105767
0.0106652
0.0107391
0.0107984
0.0108432
0.0108735
0.0108896
0.0108918
0.0108802
0.0108555
0.0108179
0.0107681
0.0107066
0.0106339
0.0105507
0.0104575
0.010355
0.0102437
0.0101239
0.00999623
0.00986184
0.0097219
0.00956392
0.00937635
0.00101118
0.000797094
0.000624053
0.00047832
0.000344498
0.00022314
0.000114904
1.93165e-05
-6.40833e-05
-0.000135656
-0.000195751
-0.0002447
-0.000282811
-0.000310363
-0.000327608
-0.000334772
-0.000332054
-0.000319638
-0.000297694
-0.000266375
-0.000225817
-0.000176136
-0.000117427
-4.97733e-05
2.67502e-05
0.000112076
0.00020614
0.000308872
0.000420202
0.000540069
0.000668413
0.000805163
0.000950242
0.00110357
0.00126505
0.00143457
0.001612
0.0017972
0.00199002
0.00219031
0.00239786
0.00261247
0.00283389
0.00306186
0.00329607
0.00353617
0.00378178
0.00403249
0.00428787
0.00454745
0.00481072
0.00507711
0.00534604
0.00561687
0.00588895
0.00616158
0.00643405
0.00670563
0.00697552
0.00724294
0.00750707
0.00776708
0.00802215
0.00827143
0.00851405
0.00874915
0.00897589
0.00919344
0.009401
0.00959783
0.00978321
0.00995647
0.010117
0.0102643
0.0103977
0.010517
0.0106217
0.0107116
0.0107865
0.0108463
0.0108911
0.010921
0.0109361
0.0109367
0.0109231
0.0108959
0.0108553
0.0108021
0.0107366
0.0106597
0.0105717
0.0104735
0.0103655
0.0102485
0.0101229
0.00998908
0.00984852
0.00970242
0.0095379
0.00934304
0.000965985
0.000744013
0.00056449
0.000413215
0.000274252
0.000148185
3.5707e-05
-6.36786e-05
-0.000150465
-0.000225045
-0.000287796
-0.000339083
-0.00037924
-0.000408572
-0.000427354
-0.000435839
-0.000434257
-0.000422816
-0.000401708
-0.000371103
-0.000331147
-0.000281964
-0.000223656
-0.000156314
-8.00214e-05
5.14722e-06
9.91215e-05
0.000201833
0.000313219
0.000433228
0.000561805
0.000698889
0.000844408
0.000998288
0.00116044
0.00133076
0.00150913
0.00169543
0.00188953
0.00209128
0.00230048
0.00251694
0.00274042
0.00297065
0.00320733
0.00345014
0.00369868
0.00395255
0.00421132
0.00447452
0.00474163
0.00501209
0.00528529
0.00556059
0.00583732
0.0061148
0.00639229
0.00666904
0.00694424
0.00721709
0.00748674
0.00775235
0.00801305
0.00826795
0.00851616
0.00875678
0.00898893
0.00921174
0.00942438
0.00962606
0.00981602
0.00999356
0.010158
0.0103088
0.0104454
0.0105674
0.0106743
0.0107659
0.010842
0.0109026
0.0109475
0.0109769
0.0109911
0.0109902
0.0109746
0.0109447
0.0109011
0.0108442
0.0107747
0.0106932
0.0106004
0.0104969
0.0103833
0.0102605
0.0101288
0.00998881
0.00984201
0.00968972
0.00951867
0.00931659
0.000905366
0.000675709
0.000489856
0.000333153
0.000189147
5.84518e-05
-5.82098e-05
-0.000161355
-0.000251511
-0.000329098
-0.000394518
-0.000448156
-0.000490373
-0.000521499
-0.000541836
-0.000551663
-0.00055124
-0.000540797
-0.000520542
-0.000490655
-0.000451293
-0.000402586
-0.000344648
-0.00027758
-0.000201474
-0.000116409
-2.24572e-05
8.03172e-05
0.00019186
0.000312127
0.000441071
0.000578636
0.000724755
0.000879362
0.00104238
0.00121372
0.00139327
0.00158092
0.00177657
0.00198007
0.00219124
0.00240987
0.00263575
0.00286861
0.00310816
0.00335407
0.00360597
0.00386344
0.00412607
0.00439337
0.00466483
0.00493987
0.00521788
0.00549821
0.0057802
0.00606312
0.00634626
0.00662882
0.00690999
0.00718894
0.0074648
0.00773668
0.00800369
0.0082649
0.00851938
0.0087662
0.00900442
0.00923314
0.00945149
0.00965862
0.00985374
0.0100361
0.010205
0.0103598
0.0105
0.0106251
0.0107346
0.0108282
0.0109058
0.0109672
0.0110124
0.0110416
0.0110548
0.0110524
0.0110347
0.0110022
0.0109553
0.0108947
0.010821
0.0107348
0.0106369
0.0105279
0.0104086
0.0102797
0.0101418
0.0099955
0.00984233
0.00968376
0.00950613
0.0092968
0.00082895
0.000591762
0.000399697
0.000237662
8.86997e-05
-4.65573e-05
-0.000167362
-0.000274245
-0.000367759
-0.00044835
-0.000516438
-0.00057243
-0.000616712
-0.000649641
-0.000671547
-0.000682737
-0.000683492
-0.00067406
-0.000654662
-0.000625487
-0.000586701
-0.000538447
-0.000480848
-0.000414018
-0.000338055
-0.000253041
-0.000159043
-5.61204e-05
5.568e-05
0.00017632
0.000305758
0.000443942
0.000590815
0.000746318
0.000910386
0.00108294
0.0012639
0.00145316
0.00165063
0.00185616
0.00206959
0.00229072
0.00251932
0.00275517
0.00299796
0.00324737
0.00350303
0.00376455
0.00403148
0.00430336
0.00457966
0.0048598
0.00514316
0.00542909
0.00571691
0.0060059
0.00629531
0.00658434
0.00687216
0.0071579
0.00744066
0.00771952
0.00799355
0.00826178
0.00852325
0.00877696
0.00902196
0.00925727
0.00948198
0.00969521
0.00989611
0.0100839
0.0102578
0.0104172
0.0105614
0.01069
0.0108024
0.0108984
0.0109778
0.0110403
0.011086
0.011115
0.0111274
0.0111235
0.0111037
0.0110684
0.0110183
0.0109538
0.0108757
0.0107846
0.0106814
0.0105667
0.0104415
0.0103063
0.010162
0.0100092
0.00984946
0.00968445
0.00950009
0.00928339
0.000736387
0.000491782
0.000293592
0.000126293
-2.75705e-05
-0.000167345
-0.000292266
-0.000402875
-0.000499738
-0.000583322
-0.000654071
-0.000712416
-0.000758767
-0.00079351
-0.000817003
-0.000829573
-0.000831518
-0.0008231
-0.000804552
-0.000776075
-0.000737846
-0.000690021
-0.000632735
-0.000566109
-0.000490246
-0.000405227
-0.000311113
-0.000207956
-9.57997e-05
2.53225e-05
0.000155374
0.000294309
0.000442081
0.000598642
0.000763941
0.000937917
0.0011205
0.0013116
0.00151113
0.00171897
0.00193494
0.00215886
0.00239053
0.00262969
0.00287608
0.00312937
0.0033892
0.00365518
0.00392686
0.00420378
0.00448541
0.00477116
0.00506041
0.00535251
0.00564677
0.00594244
0.00623878
0.00653495
0.0068301
0.00712333
0.00741371
0.00770028
0.00798206
0.00825806
0.00852725
0.0087886
0.00904108
0.00928371
0.00951549
0.0097355
0.00994283
0.0101366
0.0103162
0.0104806
0.0106294
0.010762
0.0108778
0.0109766
0.011058
0.0111219
0.0111683
0.0111972
0.0112089
0.0112036
0.0111817
0.0111437
0.0110901
0.0110217
0.010939
0.0108429
0.0107341
0.0106136
0.010482
0.0103404
0.0101894
0.0100298
0.0098633
0.00969161
0.00950031
0.00927603
0.000627334
0.000375379
0.000171122
-1.40604e-06
-0.00016015
-0.000304423
-0.000433442
-0.000547766
-0.000647969
-0.000734536
-0.000807942
-0.000868642
-0.000917072
-0.000953643
-0.000978736
-0.000992696
-0.000995834
-0.000988425
-0.000970714
-0.000942918
-0.000905228
-0.000857812
-0.000800815
-0.00073436
-0.000658552
-0.000573469
-0.000479168
-0.000375695
-0.000263089
-0.000141382
-1.06055e-05
0.000129205
0.000278014
0.000435788
0.00060249
0.000778075
0.000962486
0.00115565
0.00135749
0.00156788
0.00178667
0.00201367
0.0022487
0.00249151
0.00274184
0.00299938
0.00326377
0.00353461
0.00381148
0.0040939
0.00438133
0.00467321
0.00496889
0.00526773
0.00556902
0.00587201
0.00617593
0.00647992
0.00678311
0.00708455
0.00738329
0.00767832
0.00796862
0.00825314
0.00853082
0.00880057
0.00906132
0.00931201
0.00955161
0.00977912
0.00999359
0.0101941
0.0103799
0.0105501
0.010704
0.0108411
0.0109608
0.0110627
0.0111465
0.0112121
0.0112595
0.0112886
0.0112996
0.011293
0.011269
0.0112281
0.0111711
0.0110985
0.011011
0.0109096
0.0107951
0.0106684
0.0105304
0.010382
0.010224
0.0100572
0.00988367
0.00970503
0.0095065
0.00927432
0.000501442
0.000242151
3.1845e-05
-0.000145902
-0.000309526
-0.000458295
-0.000591403
-0.000709431
-0.00081297
-0.000902523
-0.000978589
-0.00104165
-0.00109218
-0.00113059
-0.00115729
-0.00117264
-0.00117697
-0.00117056
-0.00115367
-0.00112654