/*--------------------------------*- C++ -*----------------------------------*\
| =========                 |                                                 |
| \\      /  F ield         | OpenFOAM: The Open Source CFD Toolbox           |
|  \\    /   O peration     | Version:  2512                                  |
|   \\  /    A nd           | Website:  www.openfoam.com                      |
|    \\/     M anipulation  |                                                 |
\*---------------------------------------------------------------------------*/
FoamFile
{
    version     2.0;
    format      ascii;
    arch        "LSB;label=32;scalar=64";
    class       surfaceScalarField;
    location    "0.14";
    object      phi;
}
// * * * * * * * * * * * * * * * * * * * * * * * * * * * * * * * * * * * * * //

dimensions      [0 3 -1 0 0 0 0];

oriented        oriented;

internalField   nonuniform List<scalar> 
19800
(
5.99771e-11
-6.00207e-11
1.54977e-10
-9.4987e-11
2.25344e-10
-7.03713e-11
2.35779e-10
-1.04311e-11
1.72154e-10
6.36272e-11
3.0109e-11
1.42048e-10
-1.8941e-10
2.19517e-10
-4.82592e-10
2.93179e-10
-8.44092e-10
3.61496e-10
-1.2678e-09
4.23708e-10
-1.74739e-09
4.79592e-10
-2.2766e-09
5.29214e-10
-2.84933e-09
5.72731e-10
-3.45971e-09
6.10383e-10
-4.1022e-09
6.42487e-10
-4.77157e-09
6.69381e-10
-5.46299e-09
6.91414e-10
-6.17192e-09
7.0894e-10
-6.89421e-09
7.223e-10
-7.62603e-09
7.31817e-10
-8.36382e-09
7.378e-10
-9.10435e-09
7.40538e-10
-9.84464e-09
7.40292e-10
-1.0582e-08
7.37316e-10
-1.13138e-08
7.31842e-10
-1.20379e-08
7.24062e-10
-1.2752e-08
7.14153e-10
-1.34543e-08
7.02286e-10
-1.41429e-08
6.88604e-10
-1.48161e-08
6.73215e-10
-1.54724e-08
6.56216e-10
-1.61101e-08
6.37704e-10
-1.67278e-08
6.17759e-10
-1.73243e-08
5.96448e-10
-1.78981e-08
5.73825e-10
-1.8448e-08
5.49933e-10
-1.89728e-08
5.24806e-10
-1.94713e-08
4.98467e-10
-1.99422e-08
4.70938e-10
-2.03845e-08
4.4225e-10
-2.07969e-08
4.1243e-10
-2.11784e-08
3.81494e-10
-2.15279e-08
3.49453e-10
-2.18442e-08
3.16324e-10
-2.21263e-08
2.8213e-10
-2.23732e-08
2.469e-10
-2.25839e-08
2.10665e-10
-2.27573e-08
1.73463e-10
-2.28927e-08
1.35333e-10
-2.2989e-08
9.63229e-11
-2.30455e-08
5.64912e-11
-2.30614e-08
1.59017e-11
-2.3036e-08
-2.53675e-11
-2.29688e-08
-6.72297e-11
-2.28592e-08
-1.0959e-10
-2.27069e-08
-1.52344e-10
-2.25115e-08
-1.95374e-10
-2.22729e-08
-2.38555e-10
-2.19912e-08
-2.81746e-10
-2.16664e-08
-3.24797e-10
-2.12988e-08
-3.67549e-10
-2.0889e-08
-4.09831e-10
-2.04376e-08
-4.51459e-10
-1.99453e-08
-4.92238e-10
-1.94134e-08
-5.31964e-10
-1.88429e-08
-5.70421e-10
-1.82356e-08
-6.07389e-10
-1.75929e-08
-6.42635e-10
-1.6917e-08
-6.75923e-10
-1.621e-08
-7.07009e-10
-1.54743e-08
-7.35645e-10
-1.47128e-08
-7.61573e-10
-1.39282e-08
-7.84533e-10
-1.3124e-08
-8.04266e-10
-1.23035e-08
-8.20516e-10
-1.14704e-08
-8.33032e-10
-1.06289e-08
-8.41565e-10
-9.78299e-09
-8.45872e-10
-8.93728e-09
-8.45712e-10
-8.09643e-09
-8.40855e-10
-7.26535e-09
-8.31083e-10
-6.44915e-09
-8.16192e-10
-5.65316e-09
-7.95991e-10
-4.88285e-09
-7.70303e-10
-4.14387e-09
-7.38976e-10
-3.44199e-09
-7.0188e-10
-2.78308e-09
-6.58914e-10
-2.17306e-09
-6.10013e-10
-1.6179e-09
-5.55169e-10
-1.12345e-09
-4.94449e-10
-6.95426e-10
-4.28029e-10
-3.39169e-10
-3.56255e-10
-5.94148e-11
-2.79748e-10
1.40194e-10
-1.99606e-10
2.5792e-10
-1.17725e-10
2.9529e-10
-3.73676e-11
2.59726e-10
3.55693e-11
1.69044e-10
9.06801e-11
6.03974e-11
1.08637e-10
6.03889e-11
1.00685e-10
-1.60693e-10
2.13555e-10
-2.07873e-10
2.38824e-10
-9.56311e-11
1.18798e-10
1.0959e-10
-1.79786e-10
3.6221e-10
-6.71215e-10
6.33477e-10
-1.35733e-09
9.05635e-10
-2.23227e-09
1.16812e-09
-3.28548e-09
1.41471e-09
-4.50366e-09
1.64189e-09
-5.87205e-09
1.84798e-09
-7.37528e-09
2.03244e-09
-8.99791e-09
2.19537e-09
-1.07248e-08
2.33731e-09
-1.25414e-08
2.4591e-09
-1.44338e-08
2.56177e-09
-1.63888e-08
2.64642e-09
-1.83941e-08
2.71421e-09
-2.04381e-08
2.76631e-09
-2.25102e-08
2.80384e-09
-2.46003e-08
2.82788e-09
-2.66992e-08
2.83948e-09
-2.87985e-08
2.83961e-09
-3.08904e-08
2.82917e-09
-3.29675e-08
2.80898e-09
-3.50232e-08
2.77978e-09
-3.70513e-08
2.74227e-09
-3.90461e-08
2.69705e-09
-4.10022e-08
2.64466e-09
-4.29146e-08
2.58557e-09
-4.47785e-08
2.52018e-09
-4.65897e-08
2.44885e-09
-4.83438e-08
2.37188e-09
-5.00369e-08
2.28953e-09
-5.16651e-08
2.20203e-09
-5.32247e-08
2.10956e-09
-5.47122e-08
2.01228e-09
-5.61241e-08
1.91032e-09
-5.7457e-08
1.80379e-09
-5.87075e-08
1.6928e-09
-5.98725e-08
1.57743e-09
-6.09488e-08
1.45777e-09
-6.19332e-08
1.33391e-09
-6.28229e-08
1.20595e-09
-6.36147e-08
1.07397e-09
-6.43059e-08
9.38104e-10
-6.48937e-08
7.98474e-10
-6.53755e-08
6.55228e-10
-6.57487e-08
5.08533e-10
-6.6011e-08
3.58587e-10
-6.61601e-08
2.05621e-10
-6.61941e-08
4.98952e-11
-6.61112e-08
-1.08299e-10
-6.59098e-08
-2.68629e-10
-6.55886e-08
-4.30728e-10
-6.51468e-08
-5.94193e-10
-6.45836e-08
-7.58578e-10
-6.38987e-08
-9.23399e-10
-6.30923e-08
-1.08813e-09
-6.2165e-08
-1.25218e-09
-6.11175e-08
-1.41497e-09
-5.99516e-08
-1.57582e-09
-5.8669e-08
-1.73406e-09
-5.72723e-08
-1.88894e-09
-5.57645e-08
-2.03969e-09
-5.41494e-08
-2.18552e-09
-5.24312e-08
-2.32557e-09
-5.06149e-08
-2.45899e-09
-4.87059e-08
-2.58487e-09
-4.67106e-08
-2.7023e-09
-4.46359e-08
-2.81034e-09
-4.24895e-08
-2.90805e-09
-4.02796e-08
-2.99445e-09
-3.80152e-08
-3.0686e-09
-3.57062e-08
-3.12952e-09
-3.3363e-08
-3.17629e-09
-3.09966e-08
-3.20799e-09
-2.86187e-08
-3.2237e-09
-2.62419e-08
-3.22256e-09
-2.3879e-08
-3.20374e-09
-2.15436e-08
-3.16645e-09
-1.92498e-08
-3.10997e-09
-1.70122e-08
-3.03363e-09
-1.48457e-08
-2.93686e-09
-1.27655e-08
-2.81918e-09
-1.07871e-08
-2.68022e-09
-8.92625e-09
-2.51978e-09
-7.19845e-09
-2.33782e-09
-5.61902e-09
-2.13461e-09
-4.20275e-09
-1.91072e-09
-2.96348e-09
-1.66729e-09
-1.91354e-09
-1.40619e-09
-1.06286e-09
-1.13042e-09
-4.17721e-10
-8.44747e-10
2.12352e-11
-5.56681e-10
2.62087e-10
-2.78214e-10
3.25747e-10
-2.80852e-11
2.52382e-10
1.64056e-10
1.08562e-10
2.52475e-10
1.68946e-10
7.21557e-11
-2.32853e-10
1.01e-10
-2.36701e-10
-2.586e-11
3.12299e-11
-3.75304e-10
4.59037e-10
-9.87668e-10
9.74571e-10
-1.88233e-09
1.52814e-09
-3.0635e-09
2.0868e-09
-4.52485e-09
2.62946e-09
-6.25307e-09
3.14293e-09
-8.23043e-09
3.61925e-09
-1.04365e-08
4.05404e-09
-1.28493e-08
4.44529e-09
-1.54465e-08
4.79258e-09
-1.82058e-08
5.09653e-09
-2.11051e-08
5.35846e-09
-2.41235e-08
5.58017e-09
-2.72408e-08
5.76373e-09
-3.0438e-08
5.91137e-09
-3.3697e-08
6.02536e-09
-3.70012e-08
6.10799e-09
-4.03348e-08
6.16147e-09
-4.36832e-08
6.18792e-09
-4.7033e-08
6.18937e-09
-5.03715e-08
6.16769e-09
-5.36871e-08
6.12462e-09
-5.69691e-08
6.06177e-09
-6.02074e-08
5.98058e-09
-6.33927e-08
5.88235e-09
-6.65163e-08
5.76824e-09
-6.957e-08
5.63929e-09
-7.25462e-08
5.49639e-09
-7.54377e-08
5.34033e-09
-7.82377e-08
5.1718e-09
-8.09395e-08
4.99138e-09
-8.3537e-08
4.79956e-09
-8.60242e-08
4.59679e-09
-8.83954e-08
4.38341e-09
-9.06448e-08
4.15975e-09
-9.27671e-08
3.9261e-09
-9.4757e-08
3.68268e-09
-9.66093e-08
3.42973e-09
-9.8319e-08
3.16747e-09
-9.98812e-08
2.89611e-09
-1.01291e-07
2.61586e-09
-1.02544e-07
2.32698e-09
-1.03636e-07
2.02974e-09
-1.04562e-07
1.72444e-09
-1.05318e-07
1.41142e-09
-1.059e-07
1.09106e-09
-1.06306e-07
7.63825e-10
-1.0653e-07
4.30208e-10
-1.06571e-07
9.07913e-11
-1.06426e-07
-2.53781e-10
-1.06092e-07
-6.02786e-10
-1.05567e-07
-9.55421e-10
-1.0485e-07
-1.3108e-09
-1.03941e-07
-1.66796e-09
-1.02838e-07
-2.02585e-09
-1.01543e-07
-2.38331e-09
-1.00056e-07
-2.73912e-09
-9.83793e-08
-3.09195e-09
-9.65147e-08
-3.4404e-09
-9.44658e-08
-3.78296e-09
-9.22367e-08
-4.11807e-09
-8.98324e-08
-4.44406e-09
-8.72587e-08
-4.75919e-09
-8.45226e-08
-5.06168e-09
-8.16319e-08
-5.34964e-09
-7.85956e-08
-5.62117e-09
-7.54236e-08
-5.8743e-09
-7.21269e-08
-6.10703e-09
-6.87177e-08
-6.31732e-09
-6.5209e-08
-6.50313e-09
-6.16152e-08
-6.66242e-09
-5.79515e-08
-6.79316e-09
-5.42345e-08
-6.89336e-09
-5.04814e-08
-6.96106e-09
-4.67107e-08
-6.99436e-09
-4.29419e-08
-6.99143e-09
-3.91951e-08
-6.95055e-09
-3.54914e-08
-6.8701e-09
-3.18528e-08
-6.7486e-09
-2.83016e-08
-6.58476e-09
-2.4861e-08
-6.37745e-09
-2.15544e-08
-6.1258e-09
-1.84054e-08
-5.82925e-09
-1.54376e-08
-5.4876e-09
-1.26743e-08
-5.10112e-09
-1.01382e-08
-4.67074e-09
-7.85066e-09
-4.19821e-09
-5.83144e-09
-3.6865e-09
-4.0974e-09
-3.14023e-09
-2.6614e-09
-2.56643e-09
-1.5305e-09
-1.97564e-09
-7.03565e-10
-1.38361e-09
-1.6796e-10
-8.13821e-10
1.05052e-10
-3.01111e-10
1.65535e-10
1.03566e-10
9.0944e-11
3.27076e-10
2.59888e-10
1.24826e-11
-2.45337e-10
-1.04624e-10
-1.19597e-10
-4.53332e-10
3.79944e-10
-1.09899e-09
1.10469e-09
-2.08154e-09
1.95712e-09
-3.42094e-09
2.86755e-09
-5.12159e-09
3.78745e-09
-7.1764e-09
4.68426e-09
-9.57009e-09
5.53662e-09
-1.22818e-08
6.33099e-09
-1.52871e-08
7.05932e-09
-1.85592e-08
7.71743e-09
-2.20705e-08
8.30384e-09
-2.57929e-08
8.81892e-09
-2.96987e-08
9.26432e-09
-3.37611e-08
9.64254e-09
-3.79541e-08
9.95666e-09
-4.22528e-08
1.02101e-08
-4.66339e-08
1.04065e-08
-5.10753e-08
1.05494e-08
-5.55562e-08
1.06424e-08
-6.00574e-08
1.0689e-08
-6.45606e-08
1.06926e-08
-6.9049e-08
1.06562e-08
-7.35071e-08
1.05827e-08
-7.79202e-08
1.04749e-08
-8.22747e-08
1.03351e-08
-8.6558e-08
1.01656e-08
-9.07582e-08
9.96847e-09
-9.48643e-08
9.74536e-09
-9.88658e-08
9.49787e-09
-1.02753e-07
9.22736e-09
-1.06516e-07
8.93504e-09
-1.10147e-07
8.62194e-09
-1.13636e-07
8.28897e-09
-1.16976e-07
7.9369e-09
-1.20159e-07
7.56638e-09
-1.23177e-07
7.17799e-09
-1.26024e-07
6.77226e-09
-1.2869e-07
6.34964e-09
-1.31171e-07
5.91058e-09
-1.33459e-07
5.45546e-09
-1.35548e-07
4.98471e-09
-1.37431e-07
4.49874e-09
-1.39102e-07
3.99801e-09
-1.40555e-07
3.48301e-09
-1.41785e-07
2.95429e-09
-1.42786e-07
2.41248e-09
-1.43553e-07
1.85827e-09
-1.44082e-07
1.29246e-09
-1.44368e-07
7.15934e-10
-1.44406e-07
1.29707e-10
-1.44195e-07
-4.65097e-10
-1.43731e-07
-1.06722e-09
-1.43011e-07
-1.67528e-09
-1.42034e-07
-2.28775e-09
-1.40799e-07
-2.90296e-09
-1.39306e-07
-3.51908e-09
-1.37555e-07
-4.13416e-09
-1.35548e-07
-4.74608e-09
-1.33287e-07
-5.35257e-09
-1.30776e-07
-5.95122e-09
-1.2802e-07
-6.53948e-09
-1.25023e-07
-7.11463e-09
-1.21794e-07
-7.67386e-09
-1.18339e-07
-8.21421e-09
-1.14668e-07
-8.7326e-09
-1.10791e-07
-9.22586e-09
-1.06722e-07
-9.69073e-09
-1.02472e-07
-1.01239e-08
-9.80574e-08
-1.05219e-08
-9.34934e-08
-1.08813e-08
-8.87978e-08
-1.11987e-08
-8.39895e-08
-1.14707e-08
-7.90889e-08
-1.16938e-08
-7.41177e-08
-1.18646e-08
-6.90989e-08
-1.19798e-08
-6.40569e-08
-1.20364e-08
-5.90171e-08
-1.20312e-08
-5.40062e-08
-1.19614e-08
-4.90519e-08
-1.18244e-08
-4.41826e-08
-1.16178e-08
-3.94279e-08
-1.13395e-08
-3.48175e-08
-1.09878e-08
-3.03817e-08
-1.05616e-08
-2.61509e-08
-1.006e-08
-2.21552e-08
-9.48327e-09
-1.84242e-08
-8.83215e-09
-1.49862e-08
-8.10877e-09
-1.18677e-08
-7.31669e-09
-9.09266e-09
-6.46154e-09
-6.68115e-09
-5.55174e-09
-4.64801e-09
-4.59957e-09
-3.0009e-09
-3.62273e-09
-1.73793e-09
-2.64657e-09
-8.44518e-10
-1.70723e-09
-2.89614e-10
-8.56015e-10
-2.15037e-11
-1.64548e-10
3.72097e-11
2.68365e-10
2.97098e-10
-6.18199e-11
-1.83517e-10
-3.58413e-10
1.76994e-10
-9.71579e-10
9.93106e-10
-1.95648e-09
2.0896e-09
-3.34722e-09
3.34785e-09
-5.16036e-09
4.68069e-09
-7.39817e-09
6.02527e-09
-1.00517e-08
7.33777e-09
-1.31035e-08
8.58841e-09
-1.65301e-08
9.75758e-09
-2.03037e-08
1.0833e-08
-2.43942e-08
1.18079e-08
-2.87695e-08
1.26791e-08
-3.33972e-08
1.34466e-08
-3.8245e-08
1.41121e-08
-4.32811e-08
1.46787e-08
-4.84749e-08
1.51504e-08
-5.37967e-08
1.55319e-08
-5.92184e-08
1.58282e-08
-6.47133e-08
1.60443e-08
-7.02564e-08
1.61854e-08
-7.58239e-08
1.62565e-08
-8.13937e-08
1.62624e-08
-8.69453e-08
1.62077e-08
-9.24592e-08
1.60966e-08
-9.79174e-08
1.59331e-08
-1.03303e-07
1.57208e-08
-1.086e-07
1.5463e-08
-1.13795e-07
1.51628e-08
-1.18872e-07
1.48229e-08
-1.2382e-07
1.44455e-08
-1.28625e-07
1.40327e-08
-1.33277e-07
1.35865e-08
-1.37763e-07
1.31084e-08
-1.42074e-07
1.25999e-08
-1.46199e-07
1.20621e-08
-1.50129e-07
1.1496e-08
-1.53854e-07
1.09027e-08
-1.57364e-07
1.02829e-08
-1.60652e-07
9.63748e-09
-1.63709e-07
8.96702e-09
-1.66525e-07
8.27223e-09
-1.69095e-07
7.55378e-09
-1.71408e-07
6.81236e-09
-1.73459e-07
6.0487e-09
-1.75239e-07
5.26359e-09
-1.76743e-07
4.45791e-09
-1.77963e-07
3.63265e-09
-1.78894e-07
2.78889e-09
-1.79529e-07
1.92788e-09
-1.79864e-07
1.05099e-09
-1.79894e-07
1.59773e-10
-1.79615e-07
-7.44044e-10
-1.79024e-07
-1.65854e-09
-1.78118e-07
-2.58161e-09
-1.76895e-07
-3.51092e-09
-1.75354e-07
-4.44394e-09
-1.73495e-07
-5.37792e-09
-1.71319e-07
-6.30988e-09
-1.68829e-07
-7.23663e-09
-1.66026e-07
-8.15474e-09
-1.62917e-07
-9.06058e-09
-1.59506e-07
-9.9503e-09
-1.55801e-07
-1.08198e-08
-1.5181e-07
-1.16649e-08
-1.47543e-07
-1.24811e-08
-1.43012e-07
-1.32638e-08
-1.38229e-07
-1.40083e-08
-1.33211e-07
-1.47096e-08
-1.27972e-07
-1.53628e-08
-1.22531e-07
-1.59627e-08
-1.16908e-07
-1.65043e-08
-1.11124e-07
-1.69824e-08
-1.05203e-07
-1.73919e-08
-9.91691e-08
-1.77277e-08
-9.30489e-08
-1.79848e-08
-8.68704e-08
-1.81583e-08
-8.06632e-08
-1.82436e-08
-7.44581e-08
-1.82363e-08
-6.82873e-08
-1.81322e-08
-6.21843e-08
-1.79275e-08
-5.61833e-08
-1.76188e-08
-5.03196e-08
-1.72033e-08
-4.46288e-08
-1.66786e-08
-3.91469e-08
-1.60434e-08
-3.391e-08
-1.5297e-08
-2.89535e-08
-1.44398e-08
-2.43118e-08
-1.34738e-08
-2.0018e-08
-1.24026e-08
-1.61025e-08
-1.12322e-08
-1.25925e-08
-9.97151e-09
-9.51072e-09
-8.63353e-09
-6.87373e-09
-7.23655e-09
-4.69033e-09
-5.80613e-09
-2.95928e-09
-4.37763e-09
-1.66677e-09
-2.99975e-09
-7.83569e-10
-1.73921e-09
-2.62055e-10
-6.86063e-10
-3.29682e-11
3.92774e-11
2.64131e-10
-1.40859e-10
-4.26549e-11
-6.33075e-10
6.69205e-10
-1.53357e-09
1.8936e-09
-2.88244e-09
3.43846e-09
-4.70398e-09
5.1694e-09
-7.00838e-09
6.98509e-09
-9.79357e-09
8.81046e-09
-1.30474e-08
1.05916e-08
-1.67496e-08
1.22907e-08
-2.0874e-08
1.3882e-08
-2.53901e-08
1.53491e-08
-3.02643e-08
1.66821e-08
-3.54615e-08
1.78763e-08
-4.09454e-08
1.89306e-08
-4.66799e-08
1.98467e-08
-5.26294e-08
2.06282e-08
-5.87592e-08
2.12801e-08
-6.50355e-08
2.18083e-08
-7.14263e-08
2.2219e-08
-7.79011e-08
2.2519e-08
-8.44307e-08
2.27151e-08
-9.09879e-08
2.28137e-08
-9.75469e-08
2.28215e-08
-1.04084e-07
2.27445e-08
-1.10576e-07
2.25885e-08
-1.17002e-07
2.2359e-08
-1.23342e-07
2.20609e-08
-1.29577e-07
2.16988e-08
-1.35691e-07
2.12767e-08
-1.41667e-07
2.07985e-08
-1.47489e-07
2.02675e-08
-1.53143e-07
1.96865e-08
-1.58615e-07
1.90582e-08
-1.63891e-07
1.83849e-08
-1.6896e-07
1.76686e-08
-1.73809e-07
1.69109e-08
-1.78426e-07
1.61135e-08
-1.82801e-07
1.52777e-08
-1.86923e-07
1.44048e-08
-1.90781e-07
1.34957e-08
-1.94366e-07
1.25516e-08
-1.97667e-07
1.15736e-08
-2.00676e-07
1.05624e-08
-2.03383e-07
9.51929e-09
-2.05779e-07
8.44523e-09
-2.07857e-07
7.3414e-09
-2.09608e-07
6.20909e-09
-2.11025e-07
5.04971e-09
-2.12101e-07
3.86485e-09
-2.1283e-07
2.65625e-09
-2.13205e-07
1.42591e-09
-2.13221e-07
1.76003e-10
-2.12874e-07
-1.09102e-09
-2.1216e-07
-2.37246e-09
-2.11076e-07
-3.66535e-09
-2.09621e-07
-4.96642e-09
-2.07792e-07
-6.27214e-09
-2.05592e-07
-7.57865e-09
-2.0302e-07
-8.88179e-09
-2.00079e-07
-1.01771e-08
-1.96774e-07
-1.14599e-08
-1.9311e-07
-1.2725e-08
-1.89093e-07
-1.3967e-08
-1.84732e-07
-1.51805e-08
-1.80038e-07
-1.63594e-08
-1.75021e-07
-1.74976e-08
-1.69697e-07
-1.85887e-08
-1.64079e-07
-1.96261e-08
-1.58185e-07
-2.0603e-08
-1.52035e-07
-2.15126e-08
-1.4565e-07
-2.23479e-08
-1.39053e-07
-2.31017e-08
-1.32268e-07
-2.37671e-08
-1.25323e-07
-2.43369e-08
-1.18247e-07
-2.48041e-08
-1.1107e-07
-2.5162e-08
-1.03824e-07
-2.5404e-08
-9.65439e-08
-2.55236e-08
-8.92652e-08
-2.5515e-08
-8.20249e-08
-2.53725e-08
-7.48613e-08
-2.50911e-08
-6.78137e-08
-2.46664e-08
-6.09223e-08
-2.40947e-08
-5.42277e-08
-2.33732e-08
-4.77709e-08
-2.25003e-08
-4.15923e-08
-2.14755e-08
-3.5732e-08
-2.03001e-08
-3.02286e-08
-1.89772e-08
-2.51186e-08
-1.75125e-08
-2.0436e-08
-1.59148e-08
-1.62108e-08
-1.41968e-08
-1.24679e-08
-1.23764e-08
-9.22615e-09
-1.04783e-08
-6.49613e-09
-8.53615e-09
-4.27882e-09
-6.59494e-09
-2.56349e-09
-4.71507e-09
-1.32587e-09
-2.97683e-09
-5.26429e-10
-1.4855e-09
-1.09099e-10
-3.78051e-10
1.55034e-10
-2.19826e-10
1.77169e-10
-9.12434e-10
1.36181e-09
-2.10924e-09
3.09041e-09
-3.83292e-09
5.16214e-09
-6.0956e-09
7.43209e-09
-8.89888e-09
9.78836e-09
-1.22346e-08
1.21461e-08
-1.6086e-08
1.4443e-08
-2.04294e-08
1.66341e-08
-2.52354e-08
1.86881e-08
-3.04706e-08
2.05843e-08
-3.60985e-08
2.231e-08
-4.20809e-08
2.38586e-08
-4.83785e-08
2.52282e-08
-5.49521e-08
2.64203e-08
-6.17626e-08
2.74387e-08
-6.87719e-08
2.82894e-08
-7.59429e-08
2.89793e-08
-8.32402e-08
2.95163e-08
-9.06297e-08
2.99085e-08
-9.80791e-08
3.01645e-08
-1.05558e-07
3.02925e-08
-1.13037e-07
3.03008e-08
-1.2049e-07
3.01971e-08
-1.2789e-07
2.99889e-08
-1.35214e-07
2.96832e-08
-1.4244e-07
2.92865e-08
-1.49546e-07
2.88045e-08
-1.56512e-07
2.82429e-08
-1.6332e-07
2.76063e-08
-1.69951e-07
2.68993e-08
-1.7639e-07
2.61256e-08
-1.82621e-07
2.52888e-08
-1.88628e-07
2.43919e-08
-1.94397e-07
2.34377e-08
-1.99915e-07
2.24283e-08
-2.05167e-07
2.1366e-08
-2.10142e-07
2.02527e-08
-2.14827e-07
1.90899e-08
-2.19211e-07
1.78793e-08
-2.23281e-07
1.66223e-08
-2.27028e-07
1.53202e-08
-2.3044e-07
1.39745e-08
-2.33508e-07
1.25866e-08
-2.3622e-07
1.1158e-08
-2.38569e-07
9.69034e-09
-2.40546e-07
8.18529e-09
-2.42141e-07
6.6448e-09
-2.43347e-07
5.07103e-09
-2.44157e-07
3.46636e-09
-2.44564e-07
1.83343e-09
-2.44564e-07
1.7519e-10
-2.4415e-07
-1.50511e-09
-2.43318e-07
-3.20387e-09
-2.42066e-07
-4.91713e-09
-2.40392e-07
-6.6406e-09
-2.38295e-07
-8.36955e-09
-2.35775e-07
-1.00989e-08
-2.32833e-07
-1.18232e-08
-2.29474e-07
-1.35365e-08
-2.25701e-07
-1.52325e-08
-2.21521e-07
-1.69047e-08
-2.16943e-07
-1.85459e-08
-2.11974e-07
-2.01487e-08
-2.06628e-07
-2.17054e-08
-2.00918e-07
-2.32078e-08
-1.94859e-07
-2.46477e-08
-1.88469e-07
-2.60163e-08
-1.81767e-07
-2.73049e-08
-1.74775e-07
-2.85043e-08
-1.67518e-07
-2.96055e-08
-1.6002e-07
-3.05993e-08
-1.52311e-07
-3.14763e-08
-1.4442e-07
-3.22275e-08
-1.36381e-07
-3.28437e-08
-1.28227e-07
-3.33162e-08
-1.19994e-07
-3.36365e-08
-1.11722e-07
-3.37963e-08
-1.03449e-07
-3.3788e-08
-9.52166e-08
-3.36045e-08
-8.70682e-08
-3.32395e-08
-7.90471e-08
-3.26875e-08
-7.11977e-08
-3.19441e-08
-6.3565e-08
-3.10059e-08
-5.61938e-08
-2.98714e-08
-4.9129e-08
-2.85404e-08
-4.2414e-08
-2.70151e-08
-3.6091e-08
-2.53002e-08
-3.01999e-08
-2.34036e-08
-2.47775e-08
-2.13372e-08
-1.98564e-08
-1.91178e-08
-1.54643e-08
-1.67685e-08
-1.16224e-08
-1.43203e-08
-8.34399e-09
-1.18145e-08
-5.63371e-09
-9.30523e-09
-3.48572e-09
-6.86307e-09
-1.88291e-09
-4.57965e-09
-7.96338e-10
-2.57207e-09
-1.85489e-10
-9.88896e-10
-3.04523e-11
-2.96276e-10
4.73444e-10
-1.18711e-09
2.25264e-09
-2.67991e-09
4.5832e-09
-4.77932e-09
7.26156e-09
-7.48409e-09
1.01369e-08
-1.07858e-08
1.30901e-08
-1.46689e-08
1.60292e-08
-1.9111e-08
1.88851e-08
-2.40841e-08
2.16071e-08
-2.95552e-08
2.41591e-08
-3.54875e-08
2.65167e-08
-4.18419e-08
2.86644e-08
-4.85772e-08
3.05939e-08
-5.56513e-08
3.23024e-08
-6.30221e-08
3.37911e-08
-7.06477e-08
3.50643e-08
-7.84871e-08
3.61287e-08
-8.65003e-08
3.69925e-08
-9.46487e-08
3.76647e-08
-1.02896e-07
3.81554e-08
-1.11206e-07
3.84746e-08
-1.19546e-07
3.86324e-08
-1.27884e-07
3.86388e-08
-1.3619e-07
3.85035e-08
-1.44437e-07
3.82356e-08
-1.52597e-07
3.78436e-08
-1.60647e-07
3.73357e-08
-1.68561e-07
3.67192e-08
-1.76319e-07
3.60009e-08
-1.839e-07
3.51869e-08
-1.91283e-07
3.42828e-08
-1.98451e-07
3.32934e-08
-2.05386e-07
3.22233e-08
-2.1207e-07
3.10762e-08
-2.18488e-07
2.98558e-08
-2.24625e-07
2.85649e-08
-2.30465e-07
2.72064e-08
-2.35995e-07
2.57827e-08
-2.41201e-07
2.4296e-08
-2.4607e-07
2.27484e-08
-2.5059e-07
2.11417e-08
-2.54747e-07
1.94778e-08
-2.58531e-07
1.77585e-08
-2.6193e-07
1.59858e-08
-2.64934e-07
1.41616e-08
-2.67532e-07
1.22881e-08
-2.69714e-07
1.03674e-08
-2.71471e-07
8.40219e-09
-2.72795e-07
6.39517e-09
-2.73678e-07
4.34943e-09
-2.74113e-07
2.26838e-09
-2.74094e-07
1.55803e-10
-2.73615e-07
-1.98414e-09
-2.72672e-07
-4.14684e-09
-2.71262e-07
-6.32727e-09
-2.69382e-07
-8.51993e-09
-2.67033e-07
-1.07188e-08
-2.64214e-07
-1.29176e-08
-2.60929e-07
-1.51091e-08
-2.57179e-07
-1.7286e-08
-2.52971e-07
-1.94403e-08
-2.48312e-07
-2.15637e-08
-2.43211e-07
-2.36471e-08
-2.37679e-07
-2.56812e-08
-2.31728e-07
-2.76562e-08
-2.25374e-07
-2.9562e-08
-2.18633e-07
-3.13879e-08
-2.11526e-07
-3.31232e-08
-2.04075e-07
-3.47566e-08
-1.96302e-07
-3.62768e-08
-1.88235e-07
-3.76724e-08
-1.79903e-07
-3.89318e-08
-1.71336e-07
-4.00434e-08
-1.62567e-07
-4.09958e-08
-1.53633e-07
-4.17777e-08
-1.44572e-07
-4.2378e-08
-1.35422e-07
-4.27863e-08
-1.26226e-07
-4.29925e-08
-1.17027e-07
-4.2987e-08
-1.0787e-07
-4.27613e-08
-9.88015e-08
-4.23077e-08
-8.98695e-08
-4.16196e-08
-8.11217e-08
-4.06918e-08
-7.26069e-08
-3.95207e-08
-6.43737e-08
-3.81047e-08
-5.64699e-08
-3.64441e-08
-4.89428e-08
-3.45423e-08
-4.18374e-08
-3.24056e-08
-3.51966e-08
-3.00444e-08
-2.906e-08
-2.74738e-08
-2.34631e-08
-2.47147e-08
-1.84362e-08
-2.17954e-08
-1.40034e-08
-1.8753e-08
-1.01821e-08
-1.56359e-08
-6.98116e-09
-1.25061e-08
-4.40113e-09
-9.4431e-09
-2.43342e-09
-6.54736e-09
-1.06088e-09
-3.94461e-09
-2.59122e-10
-1.79065e-09
-2.89574e-10
-3.68977e-10
8.42419e-10
-1.45189e-09
3.33556e-09
-3.23436e-09
6.36566e-09
-5.70358e-09
9.73077e-09
-8.84449e-09
1.32778e-08
-1.2638e-08
1.68836e-08
-1.70602e-08
2.04515e-08
-2.20825e-08
2.39074e-08
-2.76715e-08
2.71962e-08
-3.37902e-08
3.02779e-08
-4.03986e-08
3.3125e-08
-4.7454e-08
3.57198e-08
-5.49128e-08
3.80526e-08
-6.273e-08
4.01197e-08
-7.0861e-08
4.19221e-08
-7.92613e-08
4.34646e-08
-8.78871e-08
4.47546e-08
-9.66961e-08
4.58014e-08
-1.05647e-07
4.66157e-08
-1.14701e-07
4.7209e-08
-1.23819e-07
4.75931e-08
-1.32967e-07
4.77799e-08
-1.42109e-07
4.77813e-08
-1.51214e-07
4.76088e-08
-1.60252e-07
4.72732e-08
-1.69193e-07
4.67849e-08
-1.78011e-07
4.61536e-08
-1.8668e-07
4.53882e-08
-1.95176e-07
4.4497e-08
-2.03477e-07
4.34874e-08
-2.1156e-07
4.23662e-08
-2.19406e-07
4.11394e-08
-2.26995e-07
3.98125e-08
-2.34309e-07
3.83903e-08
-2.41331e-07
3.68771e-08
-2.48043e-07
3.52768e-08
-2.54429e-07
3.35928e-08
-2.60475e-07
3.18281e-08
-2.66164e-07
2.99856e-08
-2.71484e-07
2.80678e-08
-2.76419e-07
2.60772e-08
-2.80958e-07
2.40162e-08
-2.85086e-07
2.18871e-08
-2.88793e-07
1.96922e-08
-2.92065e-07
1.74343e-08
-2.94893e-07
1.51158e-08
-2.97265e-07
1.27397e-08
-2.99172e-07
1.03091e-08
-3.00604e-07
7.82763e-09
-3.01554e-07
5.29902e-09
-3.02013e-07
2.72754e-09
-3.01975e-07
1.1789e-10
-3.01435e-07
-2.52475e-09
-3.00387e-07
-5.1947e-09
-2.98828e-07
-7.88573e-09
-2.96757e-07
-1.05911e-08
-2.94173e-07
-1.33033e-08
-2.91076e-07
-1.60145e-08
-2.87469e-07
-1.87162e-08
-2.83356e-07
-2.13991e-08
-2.78743e-07
-2.40534e-08
-2.73637e-07
-2.66689e-08
-2.6805e-07
-2.92346e-08
-2.61992e-07
-3.17391e-08
-2.55478e-07
-3.41702e-08
-2.48524e-07
-3.65157e-08
-2.4115e-07
-3.87624e-08
-2.33376e-07
-4.08973e-08
-2.25225e-07
-4.29067e-08
-2.16726e-07
-4.47767e-08
-2.07905e-07
-4.64934e-08
-1.98794e-07
-4.80427e-08
-1.89427e-07
-4.94105e-08
-1.79839e-07
-5.0583e-08
-1.7007e-07
-5.15466e-08
-1.60161e-07
-5.22878e-08
-1.50153e-07
-5.2794e-08
-1.40092e-07
-5.30531e-08
-1.30026e-07
-5.30538e-08
-1.20001e-07
-5.27859e-08
-1.10068e-07
-5.22402e-08
-1.00279e-07
-5.14093e-08
-9.06834e-08
-5.02871e-08
-8.13345e-08
-4.88697e-08
-7.22836e-08
-4.71555e-08
-6.35821e-08
-4.51457e-08
-5.52798e-08
-4.28446e-08
-4.74249e-08
-4.02605e-08
-4.00632e-08
-3.74062e-08
-3.32369e-08
-3.43001e-08
-2.69844e-08
-3.09672e-08
-2.13392e-08
-2.74406e-08
-1.63291e-08
-2.37631e-08
-1.19756e-08
-1.99894e-08
-8.29317e-09
-1.61886e-08
-5.28927e-09
-1.2447e-08
-2.96455e-09
-8.87207e-09
-1.3139e-09
-5.59525e-09
-3.28501e-10
-2.77605e-09
-6.18075e-10
-4.37441e-10
1.27986e-09
-1.70411e-09
4.60224e-09
-3.76629e-09
8.42784e-09
-6.59482e-09
1.25593e-08
-1.01611e-08
1.68441e-08
-1.44352e-08
2.11577e-08
-1.93844e-08
2.54007e-08
-2.49731e-08
2.9496e-08
-3.11624e-08
3.33854e-08
-3.79106e-08
3.70261e-08
-4.51738e-08
4.03882e-08
-5.29064e-08
4.34524e-08
-6.10614e-08
4.62076e-08
-6.95915e-08
4.86498e-08
-7.84494e-08
5.078e-08
-8.75882e-08
5.26034e-08
-9.69619e-08
5.41283e-08
-1.06526e-07
5.53652e-08
-1.16236e-07
5.63262e-08
-1.26052e-07
5.70246e-08
-1.35932e-07
5.74738e-08
-1.4584e-07
5.76877e-08
-1.55739e-07
5.768e-08
-1.65594e-07
5.74641e-08
-1.75374e-07
5.70527e-08
-1.85047e-07
5.64579e-08
-1.94584e-07
5.56912e-08
-2.03959e-07
5.47631e-08
-2.13145e-07
5.36833e-08
-2.22118e-07
5.24607e-08
-2.30856e-07
5.11034e-08
-2.39335e-07
4.96186e-08
-2.47535e-07
4.80129e-08
-2.55437e-07
4.62921e-08
-2.63021e-07
4.44614e-08
-2.7027e-07
4.25255e-08
-2.77166e-07
4.04885e-08
-2.83692e-07
3.83542e-08
-2.89832e-07
3.61261e-08
-2.95572e-07
3.38073e-08
-3.00895e-07
3.14008e-08
-3.05789e-07
2.89097e-08
-3.10239e-07
2.63368e-08
-3.14232e-07
2.36851e-08
-3.17755e-07
2.09577e-08
-3.20797e-07
1.81579e-08
-3.23347e-07
1.52893e-08
-3.25393e-07
1.23557e-08
-3.26927e-07
9.36128e-09
-3.27939e-07
6.31086e-09
-3.28421e-07
3.20954e-09
-3.28366e-07
6.30119e-11
-3.27768e-07
-3.12246e-09
-3.26623e-07
-6.34001e-09
-3.24927e-07
-9.58214e-09
-3.22677e-07
-1.28407e-08
-3.19873e-07
-1.61067e-08
-3.16517e-07
-1.93708e-08
-3.12611e-07
-2.26225e-08
-3.08159e-07
-2.5851e-08
-3.03168e-07
-2.90445e-08
-2.97646e-07
-3.21905e-08
-2.91605e-07
-3.5276e-08
-2.85057e-07
-3.82874e-08
-2.78017e-07
-4.12101e-08
-2.70503e-07
-4.40294e-08
-2.62536e-07
-4.67298e-08
-2.54138e-07
-4.92954e-08
-2.45334e-07
-5.17101e-08
-2.36154e-07
-5.39573e-08
-2.26626e-07
-5.60205e-08
-2.16786e-07
-5.78829e-08
-2.06669e-07
-5.95278e-08
-1.96313e-07
-6.09387e-08
-1.8576e-07
-6.20995e-08
-1.75054e-07
-6.29945e-08
-1.64239e-07
-6.36087e-08
-1.53364e-07
-6.39279e-08
-1.42479e-07
-6.3939e-08
-1.31635e-07
-6.36299e-08
-1.20885e-07
-6.29903e-08
-1.10283e-07
-6.20115e-08
-9.98831e-08
-6.06868e-08
-8.97407e-08
-5.9012e-08
-7.99105e-08
-5.69857e-08
-7.04465e-08
-5.46097e-08
-6.14014e-08
-5.18896e-08
-5.28264e-08
-4.88355e-08
-4.47699e-08
-4.54627e-08
-3.72773e-08
-4.17928e-08
-3.03899e-08
-3.78546e-08
-2.41447e-08
-3.36858e-08
-1.85736e-08
-2.93343e-08
-1.37027e-08
-2.48603e-08
-9.55252e-09
-2.03387e-08
-6.13799e-09
-1.58615e-08
-3.46905e-09
-1.1541e-08
-1.55224e-09
-7.51205e-09
-3.92973e-10
-3.93532e-09
-1.01105e-09
-5.01575e-10
1.78143e-09
-1.94266e-09
6.04332e-09
-4.27255e-09
1.07577e-08
-7.44714e-09
1.57339e-08
-1.1425e-08
2.08219e-08
-1.61652e-08
2.58979e-08
-2.16265e-08
3.08619e-08
-2.77656e-08
3.56352e-08
-3.45379e-08
4.01577e-08
-4.18966e-08
4.43849e-08
-4.97939e-08
4.82855e-08
-5.81804e-08
5.18389e-08
-6.70063e-08
5.50335e-08
-7.62216e-08
5.7865e-08
-8.57762e-08
6.03347e-08
-9.56212e-08
6.24483e-08
-1.05708e-07
6.42153e-08
-1.1599e-07
6.56473e-08
-1.26422e-07
6.67581e-08
-1.3696e-07
6.75624e-08
-1.47562e-07
6.80758e-08
-1.58188e-07
6.83139e-08
-1.68801e-07
6.82923e-08
-1.79363e-07
6.80263e-08
-1.89841e-07
6.75306e-08
-2.00202e-07
6.68192e-08
-2.10416e-07
6.59052e-08
-2.20454e-07
6.48008e-08
-2.30288e-07
6.35174e-08
-2.39892e-07
6.20652e-08
-2.49243e-07
6.04538e-08
-2.58316e-07
5.86916e-08
-2.67089e-07
5.67863e-08
-2.75542e-07
5.47448e-08
-2.83654e-07
5.25732e-08
-2.91405e-07
5.02771e-08
-2.98778e-07
4.78615e-08
-3.05755e-07
4.53308e-08
-3.12318e-07
4.26892e-08
-3.18451e-07
3.99406e-08
-3.24139e-07
3.70885e-08
-3.29366e-07
3.41366e-08
-3.34117e-07
3.10883e-08
-3.3838e-07
2.79473e-08
-3.42139e-07
2.47173e-08
-3.45384e-07
2.14023e-08
-3.48101e-07
1.80064e-08
-3.50279e-07
1.45344e-08
-3.5191e-07
1.09914e-08
-3.52981e-07
7.38277e-09
-3.53487e-07
3.71479e-09
-3.53418e-07
-5.82342e-12
-3.52769e-07
-3.77166e-09
-3.51534e-07
-7.57458e-09
-3.49711e-07
-1.14057e-08
-3.47296e-07
-1.52555e-08
-3.44289e-07
-1.91134e-08
-3.40692e-07
-2.29681e-08
-3.36507e-07
-2.68076e-08
-3.31739e-07
-3.06189e-08
-3.26395e-07
-3.43882e-08
-3.20485e-07
-3.8101e-08
-3.14019e-07
-4.17419e-08
-3.07011e-07
-4.52947e-08
-2.99479e-07
-4.87426e-08
-2.9144e-07
-5.20682e-08
-2.82917e-07
-5.52533e-08
-2.73933e-07
-5.82794e-08
-2.64515e-07
-6.11275e-08
-2.54694e-07
-6.37783e-08
-2.44502e-07
-6.62124e-08
-2.33975e-07
-6.84103e-08
-2.2315e-07
-7.03524e-08
-2.12069e-07
-7.20197e-08
-2.00775e-07
-7.33933e-08
-1.89315e-07
-7.44551e-08
-1.77736e-07
-7.51877e-08
-1.66089e-07
-7.55747e-08
-1.54427e-07
-7.56009e-08
-1.42804e-07
-7.52528e-08
-1.31276e-07
-7.45186e-08
-1.19899e-07
-7.33883e-08
-1.08731e-07
-7.18548e-08
-9.78297e-08
-6.99134e-08
-8.72525e-08
-6.75629e-08
-7.70563e-08
-6.48059e-08
-6.72968e-08
-6.16491e-08
-5.80278e-08
-5.81045e-08
-4.93006e-08
-5.41898e-08
-4.11638e-08
-4.99296e-08
-3.3662e-08
-4.53564e-08
-2.68359e-08
-4.05118e-08
-2.07217e-08
-3.54484e-08
-1.53508e-08
-3.02312e-08
-1.07498e-08
-2.49398e-08
-6.941e-09
-1.96703e-08
-3.94348e-09
-1.45385e-08
-1.77459e-09
-9.68095e-09
-4.5239e-10
-5.25751e-09
-1.46343e-09
-5.61496e-10
2.34292e-09
-2.16734e-09
7.64916e-09
-4.75204e-09
1.33425e-08
-8.25793e-09
1.92398e-08
-1.26315e-08
2.51955e-08
-1.78217e-08
3.10881e-08
-2.37781e-08
3.68183e-08
-3.04502e-08
4.23074e-08
-3.77872e-08
4.74946e-08
-4.57372e-08
5.23349e-08
-5.42477e-08
5.6796e-08
-6.3266e-08
6.08572e-08
-7.27389e-08
6.45065e-08
-8.26135e-08
6.77397e-08
-9.28376e-08
7.05587e-08
-1.0336e-07
7.29703e-08
-1.14129e-07
7.49848e-08
-1.25097e-07
7.66155e-08
-1.36217e-07
7.78776e-08
-1.47442e-07
7.87877e-08
-1.58729e-07
7.93631e-08
-1.70037e-07
7.96215e-08
-1.81325e-07
7.95806e-08
-1.92556e-07
7.92575e-08
-2.03695e-07
7.86689e-08
-2.14706e-07
7.78306e-08
-2.25559e-07
7.67576e-08
-2.36222e-07
7.54639e-08
-2.46666e-07
7.39623e-08
-2.56866e-07
7.22647e-08
-2.66794e-07
7.0382e-08
-2.76426e-07
6.83239e-08
-2.85739e-07
6.60993e-08
-2.94711e-07
6.37163e-08
-3.0332e-07
6.11819e-08
-3.11545e-07
5.85026e-08
-3.19368e-07
5.56843e-08
-3.26769e-07
5.27321e-08
-3.33731e-07
4.96511e-08
-3.40236e-07
4.64456e-08
-3.46268e-07
4.31201e-08
-3.5181e-07
3.96787e-08
-3.56847e-07
3.61256e-08
-3.61365e-07
3.24651e-08
-3.65349e-07
2.87014e-08
-3.68786e-07
2.48394e-08
-3.71664e-07
2.0884e-08
-3.7397e-07
1.68407e-08
-3.75694e-07
1.27154e-08
-3.76826e-07
8.51456e-09
-3.77356e-07
4.2454e-09
-3.77278e-07
-8.42189e-11
-3.76584e-07
-4.46567e-09
-3.75269e-07
-8.8895e-09
-3.73329e-07
-1.33454e-08
-3.70763e-07
-1.78222e-08
-3.67568e-07
-2.23077e-08