/*--------------------------------*- C++ -*----------------------------------*\
| =========                 |                                                 |
| \\      /  F ield         | OpenFOAM: The Open Source CFD Toolbox           |
|  \\    /   O peration     | Version:  2512                                  |
|   \\  /    A nd           | Website:  www.openfoam.com                      |
|    \\/     M anipulation  |                                                 |
\*---------------------------------------------------------------------------*/
FoamFile
{
    version     2.0;
    format      ascii;
    arch        "LSB;label=32;scalar=64";
    class       volScalarField;
    location    "0.18";
    object      p;
}
// * * * * * * * * * * * * * * * * * * * * * * * * * * * * * * * * * * * * * //

dimensions      [0 2 -2 0 0 0 0];

internalField   nonuniform List<scalar> 
10000
(
-1.41048e-09
1.03343e-05
7.06812e-07
-3.43979e-05
-9.12087e-05
-0.000162867
-0.000243939
-0.000329855
-0.000416838
-0.000501861
-0.000582476
-0.000656703
-0.000722947
-0.000779961
-0.000826759
-0.000862545
-0.0008867
-0.000898782
-0.000898514
-0.000885708
-0.000860221
-0.000821972
-0.000770974
-0.000707315
-0.000631102
-0.000542439
-0.000441449
-0.000328307
-0.000203225
-6.64223e-05
8.18897e-05
0.0002415
0.00041217
0.000593628
0.000785572
0.000987696
0.0011997
0.00142129
0.00165212
0.00189182
0.00213996
0.0023961
0.00265979
0.00293058
0.00320796
0.00349137
0.00378023
0.00407389
0.00437172
0.00467303
0.0049771
0.0052832
0.00559053
0.00589827
0.00620557
0.00651154
0.00681529
0.00711589
0.00741243
0.00770395
0.00798951
0.00826812
0.00853882
0.00880061
0.00905256
0.00929375
0.00952333
0.00974046
0.00994434
0.0101342
0.0103094
0.0104691
0.010613
0.0107405
0.0108512
0.010945
0.0110215
0.0110809
0.0111231
0.0111483
0.0111569
0.0111493
0.0111261
0.0110881
0.0110361
0.0109713
0.0108948
0.0108082
0.0107132
0.0106116
0.0105055
0.0103976
0.0102905
0.0101875
0.0100922
0.0100086
0.00994121
0.00989463
0.00987346
0.00987649
1.36567e-05
2.34474e-05
1.36114e-05
-1.66588e-05
-6.34504e-05
-0.000122559
-0.000189897
-0.000261773
-0.000335048
-0.000407042
-0.000475516
-0.000538604
-0.000594778
-0.000642812
-0.000681712
-0.00071066
-0.000729003
-0.000736258
-0.000732081
-0.000716212
-0.000688466
-0.000648742
-0.000597007
-0.000533286
-0.000457628
-0.000370104
-0.000270821
-0.00015993
-3.76019e-05
9.59892e-05
0.000240661
0.000396204
0.000562376
0.000738918
0.000925562
0.00112203
0.00132803
0.00154327
0.00176738
0.002
0.00224072
0.00248912
0.00274477
0.00300722
0.00327595
0.00355041
0.00383002
0.00411416
0.00440222
0.00469355
0.00498744
0.00528317
0.00557998
0.00587705
0.00617357
0.0064687
0.00676159
0.00705137
0.00733715
0.00761803
0.00789308
0.00816138
0.00842203
0.0086741
0.0089167
0.00914899
0.00937015
0.00957941
0.00977602
0.0099593
0.0101286
0.0102833
0.0104229
0.010547
0.0106554
0.0107476
0.0108238
0.0108838
0.0109277
0.0109558
0.0109684
0.010966
0.0109491
0.0109186
0.0108752
0.0108201
0.0107545
0.0106797
0.0105975
0.0105096
0.010418
0.010325
0.0102331
0.0101451
0.0100641
0.00999329
0.00993608
0.00989572
0.00987637
0.00987944
5.81558e-05
6.1108e-05
4.67988e-05
1.6877e-05
-2.57238e-05
-7.81334e-05
-0.00013726
-0.000200182
-0.000264267
-0.000327203
-0.000386997
-0.000441943
-0.000490621
-0.000531862
-0.000564684
-0.000588284
-0.000602028
-0.000605432
-0.000598104
-0.000579729
-0.000550099
-0.000509119
-0.000456735
-0.000392911
-0.000317643
-0.000230986
-0.000133045
-2.39555e-05
9.61455e-05
0.000227129
0.000368838
0.00052106
0.000683547
0.000856051
0.00103833
0.00123014
0.0014312
0.00164121
0.00185981
0.00208661
0.00232124
0.00256328
0.00281234
0.00306796
0.00332964
0.00359681
0.00386891
0.00414533
0.00442549
0.00470875
0.00499444
0.00528185
0.00557022
0.00585877
0.00614669
0.00643319
0.00671745
0.00699865
0.00727592
0.0075484
0.00781519
0.00807539
0.00832814
0.00857258
0.00880787
0.0090332
0.0092478
0.00945093
0.00964189
0.00982003
0.00998475
0.0101355
0.0102718
0.0103933
0.0104998
0.0105909
0.0106667
0.0107272
0.0107724
0.0108027
0.0108183
0.0108198
0.0108077
0.0107827
0.0107458
0.0106979
0.0106403
0.0105743
0.0105015
0.0104234
0.0103421
0.0102595
0.010178
0.0100999
0.010028
0.0099649
0.00991336
0.00987601
0.00985679
0.00985824
0.000125804
0.000117484
9.63239e-05
6.35497e-05
2.11586e-05
-2.86559e-05
-8.35555e-05
-0.000141196
-0.000199386
-0.000256175
-0.000309818
-0.000358807
-0.000401867
-0.000437908
-0.000465982
-0.000485325
-0.000495358
-0.000495607
-0.000485657
-0.000465173
-0.000433949
-0.000391885
-0.000338908
-0.00027495
-0.000199981
-0.000114037
-1.72146e-05
9.0362e-05
0.000208583
0.000337349
0.00047652
0.000625886
0.000785204
0.000954239
0.00113277
0.00132056
0.00151736
0.00172286
0.0019367
0.0021585
0.0023879
0.00262451
0.00286792
0.00311771
0.00337336
0.00363433
0.00390006
0.00416997
0.00444347
0.00471995
0.00499877
0.00527921
0.00556055
0.00584201
0.00612282
0.00640219
0.00667936
0.0069535
0.0072238
0.00748941
0.00774946
0.00800308
0.00824943
0.00848768
0.00871705
0.00893675
0.00914606
0.00934426
0.00953068
0.0097047
0.00986575
0.0100133
0.010147
0.0102664
0.0103713
0.0104615
0.0105369
0.0105977
0.0106439
0.0106758
0.0106938
0.0106982
0.0106897
0.010669
0.0106369
0.0105945
0.0105429
0.0104834
0.0104173
0.0103464
0.0102723
0.0101968
0.0101222
0.0100504
0.00998375
0.00992464
0.00987534
0.00983811
0.0098162
0.00981182
0.000208206
0.000186656
0.000157101
0.000119818
7.55933e-05
2.61229e-05
-2.67291e-05
-8.11158e-05
-0.000135273
-0.000187553
-0.000236471
-0.000280736
-0.000319215
-0.000350907
-0.000374955
-0.000390664
-0.000397481
-0.000394939
-0.000382634
-0.000360259
-0.000327616
-0.000284577
-0.000231046
-0.000166943
-9.22407e-05
-6.9684e-06
8.87995e-05
0.00019497
0.000311457
0.000438166
0.000574955
0.000721624
0.000877954
0.00104373
0.00121876
0.0014028
0.0015956
0.00179684
0.0020062
0.00222332
0.00244784
0.00267938
0.00291755
0.00316191
0.00341196
0.00366718
0.00392702
0.00419092
0.00445831
0.0047286
0.00500114
0.00527524
0.00555017
0.0058252
0.00609957
0.00637254
0.00664333
0.00691116
0.00717522
0.00743469
0.00768873
0.0079365
0.00817718
0.00840996
0.00863409
0.00884882
0.00905346
0.00924731
0.00942974
0.00960013
0.00975794
0.00990269
0.010034
0.0101515
0.010255
0.0103443
0.0104195
0.0104805
0.0105275
0.0105607
0.0105805
0.0105873
0.0105818
0.0105646
0.0105366
0.0104986
0.0104518
0.0103975
0.0103368
0.0102714
0.0102028
0.0101327
0.0100629
0.00999524
0.00993177
0.00987442
0.00982517
0.00978596
0.00975879
0.00974489
0.000301352
0.000265014
0.000225861
0.000182836
0.000135185
8.4318e-05
3.17525e-05
-2.10852e-05
-7.27922e-05
-0.000122018
-0.000167532
-0.000208229
-0.000243105
-0.000271281
-0.000292022
-0.000304714
-0.000308819
-0.000303875
-0.000289521
-0.000265503
-0.000231629
-0.000187748
-0.000133732
-6.95057e-05
4.94132e-06
8.9575e-05
0.000184349
0.000289211
0.000404094
0.000528899
0.000663473
0.000807624
0.000961159
0.0011239
0.00129567
0.00147622
0.00166531
0.00186261
0.0020678
0.00228057
0.00250057
0.00272743
0.00296077
0.00320015
0.00344507
0.00369502
0.00394948
0.00420792
0.00446977
0.00473446
0.00500134
0.00526974
0.00553894
0.00580822
0.00607687
0.00634414
0.0066093
0.00687157
0.00713016
0.00738424
0.00763302
0.00787566
0.00811139
0.00833942
0.00855902
0.00876945
0.00897005
0.00916014
0.0093391
0.00950635
0.00966137
0.00980369
0.00993292
0.0100488
0.010151
0.0102396
0.0103144
0.0103755
0.0104231
0.0104573
0.0104786
0.0104874
0.0104842
0.0104697
0.0104448
0.0104104
0.0103673
0.0103169
0.0102604
0.010199
0.0101343
0.0100678
0.0100011
0.00993578
0.00987356
0.00981609
0.00976506
0.00972209
0.00968777
0.00966199
0.000401281
0.000349403
0.000299842
0.000250064
0.000197763
0.000144111
9.03702e-05
3.76312e-05
-1.30079e-05
-6.04818e-05
-0.000103787
-0.000141978
-0.000174189
-0.00019968
-0.000217835
-0.000228105
-0.000229987
-0.000223058
-0.00020701
-0.000181621
-0.000146714
-0.000102122
-4.77115e-05
1.65837e-05
9.07583e-05
0.000174783
0.000268636
0.00037229
0.000485689
0.000608727
0.000741249
0.000883077
0.00103404
0.00119399
0.00136275
0.0015401
0.00172576
0.00191944
0.00212083
0.00232962
0.0025455
0.00276811
0.00299706
0.00323191
0.00347219
0.00371741
0.00396705
0.0042206
0.00447752
0.00473724
0.00499912
0.00526249
0.00552666
0.00579092
0.00605458
0.00631691
0.0065772
0.00683468
0.00708857
0.00733805
0.00758234
0.00782063
0.00805215
0.00827616
0.00849192
0.00869874
0.00889595
0.00908288
0.00925893
0.00942355
0.0095762
0.00971647
0.00984397
0.00995843
0.0100596
0.0101475
0.0102219
0.010283
0.0103309
0.0103659
0.0103883
0.0103985
0.010397
0.0103846
0.010362
0.0103301
0.0102898
0.0102422
0.0101884
0.0101298
0.0100675
0.0100031
0.00993784
0.00987321
0.00981062
0.00975143
0.0096971
0.00964898
0.0096062
0.00956732
0.00050452
0.00043693
0.000376448
0.000319202
0.000261363
0.00020388
0.000147836
9.40359e-05
4.33112e-05
-3.50601e-06
-4.56008e-05
-8.21918e-05
-0.000112578
-0.000136153
-0.00015238
-0.000160766
-0.000160879
-0.000152371
-0.000134981
-0.000108501
-7.27525e-05
-2.7581e-05
2.71252e-05
9.1412e-05
0.000165276
0.000248707
0.000341706
0.000444249
0.000556269
0.000677657
0.00080827
0.000947955
0.00109657
0.00125396
0.00141998
0.00159438
0.0017769
0.00196726
0.00216518
0.00237037
0.00258253
0.00280129
0.00302628
0.00325706
0.00349319
0.00373417
0.00397953
0.00422877
0.00448136
0.00473672
0.00499422
0.00525322
0.00551304
0.00577298
0.00603237
0.00629051
0.00654666
0.00680009
0.00705002
0.00729565
0.00753619
0.00777085
0.0079989
0.00821958
0.00843219
0.00863605
0.00883047
0.00901483
0.00918851
0.00935097
0.0095017
0.00964027
0.00976634
0.00987963
0.00997994
0.0100671
0.0101412
0.0102023
0.0102504
0.0102858
0.0103089
0.01032
0.0103198
0.0103088
0.0102877
0.0102575
0.0102189
0.0101731
0.010121
0.0100638
0.0100028
0.00993906
0.00987392
0.00980859
0.00974427
0.00968209
0.0096233
0.00956904
0.00951702
0.00946454
0.000608083
0.000524939
0.000453338
0.000388168
0.000324151
0.000262075
0.000202869
0.000147093
9.53461e-05
4.82867e-05
6.56781e-06
-2.92115e-05
-5.85164e-05
-8.08436e-05
-9.57177e-05
-0.000102718
-0.000101501
-9.18005e-05
-7.33945e-05
-4.60801e-05
-9.68374e-06
3.59229e-05
9.08114e-05
0.000155008
0.000228523
0.000311372
0.000403566
0.000505071
0.000615803
0.000735652
0.000864495
0.00100221
0.00114867
0.00130374
0.00146725
0.00163895
0.00181861
0.00200595
0.00220074
0.00240269
0.0026115
0.00282682
0.00304827
0.00327544
0.00350787
0.00374513
0.00398675
0.00423223
0.00448105
0.00473265
0.0049864
0.00524166
0.00549778
0.00575408
0.00600989
0.00626453
0.00651728
0.00676738
0.00701406
0.00725655
0.00749405
0.0077258
0.00795106
0.0081691
0.00837922
0.00858073
0.00877297
0.0089553
0.00912712
0.00928789
0.00943711
0.00957437
0.0096993
0.00981165
0.00991122
0.00999789
0.0100716
0.0101325
0.0101807
0.0102163
0.0102398
0.0102515
0.0102519
0.0102417
0.0102216
0.0101922
0.0101546
0.0101095
0.0100581
0.0100014
0.00994041
0.00987628
0.0098101
0.00974294
0.00967582
0.00960964
0.00954553
0.00948446
0.0094228
0.00935673
0.000709368
0.000611097
0.000528411
0.000455058
0.00038444
0.00031722
0.000254193
0.000195722
0.000142225
9.42032e-05
5.21411e-05
1.64737e-05
-1.23867e-05
-3.40247e-05
-4.80489e-05
-5.41303e-05
-5.20098e-05
-4.14798e-05
-2.23483e-05
5.56966e-06
4.24231e-05
8.83007e-05
0.000143244
0.000207274
0.000280414
0.000362693
0.000454115
0.000554631
0.000664149
0.000782566
0.00090978
0.00104569
0.00119019
0.00134315
0.00150437
0.00167363
0.00185069
0.00203533
0.00222731
0.00242637
0.00263221
0.00284448
0.0030628
0.00328678
0.00351601
0.00375004
0.00398843
0.00423069
0.00447632
0.00472474
0.00497534
0.00522749
0.00548056
0.00573388
0.00598679
0.00623862
0.00648865
0.00673612
0.00698026
0.0072203
0.00745546
0.00768498
0.00790813
0.00812419
0.00833245
0.00853223
0.00872286
0.00890371
0.00907417
0.00923371
0.00938183
0.00951812
0.00964222
0.00975386
0.00985287
0.0099391
0.0100125
0.0100732
0.0101213
0.010157
0.0101805
0.0101924
0.0101931
0.0101831
0.0101632
0.0101341
0.0100966
0.0100516
0.00999995
0.00994271
0.00988084
0.00981532
0.00974713
0.00967721
0.00960641
0.00953548
0.00946543
0.00939712
0.00932573
0.00924638
0.00080619
0.000693354
0.000599773
0.000518159
0.000440688
0.000367921
0.000300581
0.000238876
0.000183072
0.000133497
9.0474e-05
5.43262e-05
2.538e-05
3.95348e-06
-9.67263e-06
-1.52669e-05
-1.26337e-05
-1.59975e-06
1.79981e-05
4.63061e-05
8.34249e-05
0.000129405
0.000184277
0.00024807
0.000320813
0.000402528
0.0004932
0.000592764
0.000701131
0.000818218
0.000943946
0.00107823
0.00122095
0.00137198
0.00153113
0.00169818
0.00187293
0.00205516
0.00224466
0.00244117
0.0026444
0.002854
0.00306961
0.00329085
0.00351732
0.00374862
0.0039843
0.00422389
0.00446687
0.00471268
0.00496072
0.00521038
0.00546103
0.00571202
0.00596271
0.0062124
0.00646038
0.0067059
0.00694819
0.00718646
0.00741996
0.00764792
0.00786962
0.00808434
0.00829136
0.00849
0.0086796
0.00885949
0.0090291
0.00918785
0.00933528
0.00947095
0.00959452
0.00970571
0.00980432
0.00989023
0.0099634
0.0100239
0.0100717
0.0101072
0.0101307
0.0101424
0.0101429
0.0101327
0.0101125
0.010083
0.010045
0.00999923
0.00994662
0.00988806
0.00982446
0.00975672
0.00968571
0.00961226
0.00953709
0.00946083
0.00938442
0.00930863
0.00922758
0.00913548
0.000896733
0.000769945
0.00066575
0.000575903
0.000491446
0.000412877
0.000340885
0.000275553
0.00021699
0.000165368
0.000120891
8.37951e-05
5.43198e-05
3.26743e-05
1.90321e-05
1.35424e-05
1.63527e-05
2.76074e-05
4.7431e-05
7.59157e-05
0.00011311
0.000159039
0.000213732
0.000277226
0.000349545
0.000430689
0.000520621
0.000619267
0.00072655
0.00084241
0.000966785
0.00109959
0.00124071
0.00139
0.00154729
0.00171237
0.00188507
0.00206519
0.00225253
0.00244683
0.00264781
0.00285511
0.00306841
0.00328734
0.00351153
0.00374058
0.00397406
0.0042115
0.00445237
0.00469614
0.00494221
0.00518998
0.00543884
0.00568814
0.00593725
0.00618546
0.00643206
0.00667629
0.00691739
0.00715457
0.00738707
0.00761414
0.00783503
0.00804904
0.00825544
0.00845354
0.00864265
0.00882212
0.00899135
0.00914978
0.00929692
0.00943233
0.00955567
0.00966666
0.00976507
0.00985079
0.00992375
0.00998398
0.0100316
0.0100668
0.0100898
0.0101011
0.0101011
0.0100903
0.0100693
0.0100389
0.00999971
0.00995256
0.00989827
0.00983769
0.00977164
0.00970097
0.00962646
0.00954885
0.00946877
0.00938674
0.00930368
0.00922032
0.00912983
0.00902556
0.000979465
0.000839338
0.000724846
0.000626857
0.000535383
0.000450896
0.000374039
0.000304772
0.000243076
0.000189017
0.000142711
0.000104298
7.39106e-05
5.16572e-05
3.763e-05
3.19195e-05
3.46284e-05
4.58576e-05
6.56773e-05
9.41251e-05
0.000131215
0.00017696
0.000231389
0.000294532
0.000366392
0.000446944
0.000536137
0.000633901
0.000740173
0.000854911
0.000978063
0.00110954
0.00124921
0.00139694
0.00155257
0.00171593
0.00188685
0.00206515
0.00225064
0.00244306
0.00264213
0.00284751
0.0030589
0.00327596
0.00349832
0.0037256
0.00395738
0.00419318
0.00443249
0.00467477
0.00491945
0.00516593
0.00541361
0.00566185
0.00591001
0.00615739
0.00640326
0.00664687
0.00688743
0.00712418
0.00735634
0.00758316
0.00780389
0.00801781
0.0082242
0.00842233
0.00861151
0.00879109
0.00896044
0.00911899
0.00926625
0.00940177
0.0095252
0.00963623
0.00973465
0.00982031
0.00989314
0.00995315
0.0100004
0.0100352
0.0100577
0.0100683
0.0100674
0.0100556
0.0100335
0.0100016
0.00996072
0.00991162
0.00985505
0.00979182
0.00972272
0.0096485
0.00956991
0.00948763
0.0094022
0.00931409
0.0092242
0.00913327
0.0090336
0.0089178
0.00105303
0.000900165
0.000775724
0.00066975
0.000571309
0.000480861
0.000398998
0.000325565
0.000260457
0.000203676
0.000155251
0.000115208
8.35749e-05
6.03786e-05
4.56562e-05
3.94538e-05
4.18222e-05
5.28009e-05
7.24004e-05
0.000100616
0.000137445
0.000182895
0.000236986
0.000299724
0.000371084
0.000451021
0.000539479
0.0006364
0.000741739
0.00085546
0.000977507
0.00110778
0.00124616
0.00139251
0.00154669
0.00170856
0.00187796
0.00205473
0.00223867
0.00242953
0.00262703
0.00283088
0.00304076
0.00325636
0.00347735
0.00370334
0.00393391
0.00416857
0.00440685
0.00464819
0.00489205
0.00513783
0.00538494
0.00563275
0.00588059
0.00612777
0.00637356
0.00661718
0.00685786
0.00709482
0.00732729
0.00755451
0.00777572
0.00799018
0.00819715
0.0083959
0.00858571
0.00876591
0.00893587
0.009095
0.0092428
0.0093788
0.00950264
0.00961399
0.00971262
0.00979838
0.00987118
0.00993102
0.00997797
0.0100122
0.010034
0.0100437
0.0100417
0.0100285
0.0100048
0.00997104
0.00992803
0.00987647
0.0098171
0.00975068
0.00967796
0.00959968
0.00951653
0.00942915
0.00933803
0.00924359
0.00914678
0.00904832
0.00893977
0.00881306
0.00111625
0.000951226
0.000817206
0.000703458
0.000598144
0.000501714
0.000414746
0.000337003
0.000268312
0.000208603
0.000157811
0.000115863
8.27021e-05
5.82942e-05
4.26307e-05
3.57089e-05
3.75177e-05
4.80315e-05
6.72133e-05
9.50321e-05
0.000131476
0.00017654
0.000230221
0.000292496
0.000363312
0.000442613
0.000530347
0.000626474
0.000730957
0.000843757
0.000964808
0.00109401
0.00123124
0.00137638
0.00152933
0.00168994
0.00185809
0.0020336
0.00221628
0.00240589
0.00260218
0.00280485
0.00301362
0.0032282
0.00344826
0.00367342
0.00390326
0.0041373
0.00437506
0.00461601
0.00485962
0.00510529
0.00535243
0.00560041
0.00584856
0.00609617
0.00634249
0.00658677
0.00682822
0.00706605
0.00729948
0.00752773
0.00775005
0.00796567
0.00817383
0.00837377
0.00856477
0.00874613
0.0089172
0.00907738
0.00922613
0.009363
0.00948757
0.00959953
0.00969861
0.00978465
0.00985753
0.00991724
0.00996385
0.00999751
0.0100185
0.0100271
0.0100237
0.0100089
0.00998321
0.00994723
0.00990165
0.00984717
0.00978451
0.00971442
0.00963763
0.00955483
0.0094667
0.00937385
0.00927676
0.00917582
0.009072
0.0089661
0.00884896
0.00871192
0.00116811
0.000991476
0.000848246
0.000726943
0.000614862
0.000512461
0.000420347
0.000338228
0.000265847
0.000203046
0.000149673
0.000105588
7.06751e-05
4.48499e-05
2.80497e-05
2.02103e-05
2.12558e-05
3.11095e-05
4.97049e-05
7.69962e-05
0.000112954
0.00015755
0.000210751
0.0002725
0.000342731
0.000421384
0.000508421
0.000603807
0.000707506
0.000819472
0.000939629
0.00106788
0.00120411
0.00134823
0.00150014
0.00165973
0.00182687
0.00200139
0.0021831
0.00237178
0.00256718
0.00276905
0.00297711
0.00319109
0.00341066
0.00363545
0.00386503
0.00409894
0.0043367
0.00457781
0.00482172
0.00506786
0.00531562
0.00556438
0.00581344
0.0060621
0.00630961
0.00655518
0.00679804
0.00703738
0.00727241
0.00750235
0.00772641
0.00794381
0.00815376
0.00835549
0.00854824
0.00873129
0.00890398
0.00906567
0.00921583
0.00935394
0.00947961
0.00959247
0.00969226
0.00977876
0.00985186
0.00991153
0.0099578
0.00999084
0.0100109
0.0100182
0.0100133
0.00999661
0.00996867
0.0099301
0.00988157
0.00982376
0.0097574
0.00968322
0.00960192
0.0095142
0.00942072
0.00932209
0.00921879
0.0091112
0.00900034
0.00888709
0.00876164
0.00861478
0.00120775
0.00101999
0.000867872
0.000739217
0.000620496
0.000512196
0.000414955
0.000328427
0.00025227
0.00018624
0.00013012
8.37228e-05
4.68916e-05
1.94867e-05
1.37898e-06
-7.56029e-06
-7.4586e-06
1.57338e-06
1.94504e-05
4.61099e-05
8.14954e-05
0.000125546
0.000178193
0.000239359
0.000308972
0.00038698
0.000473351
0.00056805
0.000671034
0.000782243
0.000901601
0.00102902
0.0011644
0.00130767
0.00145876
0.00161755
0.00178392
0.00195771
0.00213874
0.00232679
0.00252165
0.00272308
0.00293082
0.00314461
0.00336412
0.00358897
0.00381876
0.00405304
0.00429132
0.00453311
0.00477788
0.00502506
0.00527404
0.00552416
0.00577475
0.00602508
0.00627439
0.0065219
0.00676681
0.00700831
0.0072456
0.00747787
0.00770431
0.00792412
0.00813648
0.00834058
0.00853566
0.00872096
0.00889578
0.00905948
0.00921148
0.00935126
0.00947839
0.00959247
0.00969322
0.00978041
0.00985389
0.00991361
0.0099596
0.00999201
0.0100111
0.010017
0.0100104
0.00999156
0.00996111
0.00991964
0.00986782
0.00980632
0.00973587
0.00965719
0.009571
0.009478
0.00937885
0.00927417
0.00916443
0.00905005
0.00893213
0.00881158
0.00867806
0.00852184
0.00123435
0.00103591
0.000875193
0.000739378
0.000614177
0.000500096
0.000397772
0.000306806
0.000226794
0.00015743
9.84517e-05
4.96289e-05
1.07553e-05
-1.83698e-05
-3.79426e-05
-4.81448e-05
-4.91359e-05
-4.10482e-05
-2.39889e-05
1.95082e-06
3.66819e-05
8.01082e-05
0.000132133
0.000192669
0.000261648
0.000339023
0.000424763
0.000518824
0.00062115
0.000731676
0.000850331
0.000977035
0.00111172
0.00125433
0.00140479
0.001563
0.00172884
0.00190214
0.00208276
0.00227049
0.00246514
0.00266648
0.00287429
0.00308828
0.00330815
0.00353352
0.00376399
0.00399911
0.00423841
0.00448142
0.0047276
0.00497638
0.00522715
0.00547924
0.00573196
0.00598457
0.00623632
0.0064864
0.00673401
0.00697832
0.00721852
0.00745377
0.00768324
0.0079061
0.00812149
0.00832858
0.00852657
0.00871467
0.00889217
0.00905838
0.0092127
0.00935458
0.00948355
0.00959921
0.00970121
0.00978932
0.00986335
0.00992325
0.00996904
0.0100008
0.0100188
0.0100234
0.0100148
0.00999369
0.00996049
0.00991585
0.00986042
0.00979489
0.00972
0.00963647
0.00954504
0.00944642
0.00934129
0.00923029
0.00911392
0.00899262
0.00886757
0.00873978
0.00859839
0.00843317
0.00124716
0.00103845
0.000869421
0.000726646
0.000595125
0.00047537
0.000368007
0.000272586
0.000188664
0.000115905
5.40047e-05
2.67742e-06
-3.83438e-05
-6.93193e-05
-9.04957e-05
-0.00010209
-0.000104283
-9.72323e-05
-8.10722e-05
-5.59313e-05
-2.19362e-05
2.07881e-05
7.21326e-05
0.000132009
0.000200351
0.000277113
0.000362253
0.000455715
0.000557436
0.00066735
0.000785396
0.000911515
0.00104566
0.00118777
0.00133779
0.00149562
0.00166115
0.00183422
0.00201469
0.0022024
0.00239717
0.00259878
0.00280702
0.00302162
0.00324225
0.00346856
0.00370016
0.00393659
0.00417743
0.00442217
0.00467031
0.00492125
0.00517437
0.00542901
0.00568447
0.00593999
0.0061948
0.00644809
0.00669905
0.00694684
0.00719062
0.00742951
0.00766268
0.00788922
0.00810828
0.00831899
0.0085205
0.00871199
0.00889272
0.00906197
0.00921911
0.00936355
0.00949478
0.00961236
0.00971593
0.00980522
0.00988003
0.00994027
0.00998594
0.0100172
0.0100341
0.0100371
0.0100266
0.010003
0.00996681
0.00991874
0.00985942
0.00978956
0.0097099
0.00962119
0.00952419
0.00941963
0.00930822
0.00919064
0.00906742
0.00893906
0.00880681
0.0086718
0.00852266
0.00834872
0.00124551
0.0010269
0.000849849
0.000700313
0.0005626
0.000437243
0.000324881
0.000225016
0.000137178
6.10013e-05
-3.86357e-06
-5.77658e-05
-0.000101034
-0.000133973
-0.000156859
-0.000169936
-0.00017341
-0.000167468
-0.000152282
-0.00012802
-9.4839e-05
-5.28815e-05
-2.25911e-06
5.69419e-05
0.000124653
0.000200818
0.000285383
0.00037828
0.000479444
0.000588818
0.000706355
0.000832013
0.000965754
0.00110754
0.0012573
0.00141494
0.00158036
0.00175344
0.00193404
0.00212202
0.00231722
0.00251945
0.00272847
0.00294404
0.00316584
0.00339351
0.00362667
0.0038649
0.00410775
0.00435475
0.00460536
0.00485902
0.00511507
0.00537285
0.00563164
0.00589068
0.00614918
0.00640634
0.00666132
0.00691326
0.00716128
0.0074045
0.00764203
0.00787294
0.00809633
0.00831129
0.00851694
0.00871244
0.00889699
0.00906984
0.00923031
0.00937779
0.00951172
0.00963163
0.00973712
0.00982789
0.00990371
0.00996448
0.0100102
0.0100409
0.0100568
0.0100583
0.0100456
0.0100194
0.0099801
0.00992837
0.0098649
0.00979042
0.00970568
0.00961147
0.00950857
0.00939775
0.00927978
0.00915535
0.00902507
0.00888948
0.00874993
0.00860766
0.00845083
0.00826834
0.00122881
0.00100063
0.000815795
0.000659672
0.000515875
0.000384981
0.000267668
0.000163402
7.16724e-05
-7.92838e-06
-7.58018e-05
-0.00013235
-0.000177948
-0.000212932
-0.000237599
-0.000252218
-0.000257032
-0.000252266
-0.000238132
-0.000214826
-0.000182527
-0.000141382
-9.15054e-05
-3.29855e-05
3.4099e-05
0.000109679
0.000193684
0.000286045
0.000386701
0.000495608
0.000612735
0.000738053
0.000871531
0.00101313
0.00116279
0.00132043
0.00148596
0.00165926
0.00184024
0.00202878
0.00222472
0.00242788
0.00263804
0.00285494
0.00307828
0.00330773
0.00354289
0.00378336
0.00402871
0.00427846
0.00453209
0.00478899
0.00504853
0.00531003
0.00557275
0.00583593
0.00609878
0.00636046
0.00662013
0.00687689
0.00712986
0.0073781
0.00762067
0.00785663
0.00808503
0.00830493
0.00851538
0.00871552
0.00890451
0.00908154
0.00924591
0.00939694
0.00953405
0.00965672
0.00976452
0.00985709
0.00993421
0.00999572
0.0100416
0.0100719
0.0100869
0.0100868
0.010072
0.010043
0.0100004
0.00994481
0.00987695
0.00979757
0.00970746
0.00960744
0.00949832
0.00938094
0.00925608
0.00912454
0.00898696
0.00884393
0.00869694
0.00854732
0.00838279
0.00819183
0.00119652
0.000959022
0.000766593
0.00060402
0.000454255
0.000317913
0.000195713
8.7097e-05
-8.49866e-06
-9.15372e-05
-0.000162467
-0.000221721
-0.000269704
-0.000306778
-0.000333267
-0.000349477
-0.000355689
-0.000352168
-0.000339159
-0.000316878
-0.000285511
-0.000245207
-0.000196088
-0.000138254
-7.17977e-05
3.19769e-06
8.66559e-05
0.000178509
0.000278706
0.00038722
0.000504032
0.000629122
0.000762461
0.000904013
0.00105373
0.00121153
0.00137735
0.00155111
0.00173272
0.00192208
0.00211905
0.00232345
0.00253506
0.00275364
0.0029789
0.0032105
0.00344808
0.00369124
0.00393956
0.00419256
0.0044497
0.00471039
0.00497398
0.00523977
0.00550702
0.00577497
0.0060428
0.00630968
0.00657472
0.00683701
0.00709562
0.00734958
0.00759792
0.00783965
0.00807377
0.00829929
0.00851525
0.0087207
0.00891477
0.00909662
0.00926547
0.00942062
0.00956142
0.00968732
0.00979784
0.0098926
0.00997132
0.0100338
0.0100801
0.0101102
0.0101242
0.0101226
0.0101056
0.0100738
0.0100278
0.00996815
0.00989567
0.00981113
0.00971536
0.00960921
0.00949357
0.00936929
0.00923725
0.00909829
0.00895312
0.00880242
0.00864778
0.00849066
0.00831834
0.00811887
0.00114812
0.000901501
0.000701618
0.000532712
0.0003771
0.000235413
0.000108397
-4.53473e-06
-0.000103994
-0.000190491
-0.000264509
-0.000326502
-0.000376895
-0.000416082
-0.000444428
-0.000462277
-0.000469949
-0.000467742
-0.000455921
-0.000434713
-0.000404308
-0.000364864
-0.000316515
-0.000259377
-0.000193558
-0.000119151
-3.62311e-05
5.51433e-05
0.000154936
0.000263129
0.000379713
0.000504671
0.000637979
0.000779605
0.000929507
0.00108763
0.00125394
0.00142836
0.00161084
0.00180127
0.00199953
0.00220545
0.00241882
0.0026394
0.00286692
0.00310106
0.00334147
0.00358776
0.0038395
0.00409622
0.00435738
0.00462238
0.00489056
0.00516121
0.0054336
0.00570694
0.00598041
0.00625316
0.00652426
0.00679279
0.00705777
0.00731819
0.00757303
0.00782127
0.00806184
0.00829373
0.0085159
0.00872738
0.00892723
0.00911456
0.00928854
0.0094484
0.00959346
0.00972311
0.00983683
0.00993418
0.0100149
0.0100787
0.0101256
0.0101556
0.0101689
0.0101658
0.0101466
0.0101119
0.0100623
0.00999848
0.00992118
0.00983124
0.00972952
0.00961693
0.00949442
0.00936291
0.00922335
0.00907664
0.00892358
0.00876491
0.00860237
0.00843754
0.00825724
0.0080491
0.00108305
0.000827504
0.000620307
0.000445174
0.000283817
0.000136872
5.09304e-06
-0.000112141
-0.000215473
-0.000305442
-0.000382553
-0.000447288
-0.000500101
-0.000541424
-0.000571666
-0.000591209
-0.000600405
-0.00059957
-0.000588982
-0.000568876
-0.000539453
-0.000500885
-0.000453323
-0.000396901
-0.000331737
-0.000257924
-0.000175531
-8.4603e-05
1.48341e-05
0.000122771
0.000239201
0.00036411
0.000497477
0.000639281
0.000789498
0.0009481
0.00111506
0.00129034
0.00147389
0.00166563
0.00186544
0.00207314
0.00228855
0.00251144
0.00274155
0.00297858
0.0032222
0.00347203
0.00372764
0.00398854
0.00425421
0.00452402
0.00479733
0.00507343
0.00535155
0.00563092
0.00591069
0.00618998
0.00646786
0.00674335
0.00701543
0.00728307
0.00754518
0.00780069
0.00804849
0.00828751
0.00851667
0.00873494
0.0089413
0.00913482
0.00931461
0.00947985
0.00962978
0.00976374
0.00988117
0.0099816
0.0100647
0.0101302
0.010178
0.0102081
0.0102208
0.0102163
0.010195
0.0101574
0.0101041
0.0100359
0.00995361
0.00985801
0.00975005
0.00963072
0.009501
0.0093619
0.00921445
0.00905962
0.00889831
0.00873134
0.00856057
0.00838772
0.00819917
0.00798212
0.00100082
0.000736509
0.000522129
0.000340865
0.000173827
2.16735e-05
-0.000114839
-0.000236367
-0.00034357
-0.000437001
-0.000517194
-0.000584667
-0.000639914
-0.000683408
-0.000715594
-0.000736886
-0.000747657
-0.000748235
-0.000738908
-0.000719924
-0.000691502
-0.000653834
-0.000607089
-0.00055141
-0.000486918
-0.000413703
-0.000331823
-0.000241312
-0.000142188
-3.44572e-05
8.18747e-05
0.000206798
0.0003403
0.000482375
0.000633022
0.000792237
0.000960013
0.00113633
0.00132115
0.0015144
0.00171596
0.00192568
0.00214339
0.00236888
0.0026019
0.00284217
0.00308937
0.00334313
0.00360301
0.00386855
0.00413919
0.00441433
0.00469331
0.00497541
0.00525987
0.0055459
0.00583263
0.00611917
0.00640453
0.00668772
0.00696767
0.00724329
0.00751346
0.00777704
0.00803289
0.00827986
0.00851681
0.00874266
0.00895633
0.00915681
0.00934315
0.00951446
0.00966993
0.00980884
0.00993056
0.0100346
0.0101205
0.0101881
0.0102371
0.0102677
0.01028
0.0102742
0.0102508
0.0102103
0.0101533
0.0100806
0.00999309
0.00989158
0.0097771
0.00965069
0.0095134
0.00936633
0.00921059
0.00904724
0.00887725
0.00870157
0.00852218
0.00834095
0.00814379
0.00791744
0.000900972
0.00062801
0.000406547
0.000219221
4.65395e-05
-0.000110806
-0.000252036
-0.000377835
-0.000488885
-0.000585758
-0.000669023
-0.000739243
-0.000796954
-0.000842664
-0.000876844
-0.000899928
-0.000912307
-0.000914322
-0.000906275
-0.000888436
-0.000861043
-0.00082431
-0.000778415
-0.00072351
-0.000659708
-0.000587092
-0.000505711
-0.000415594
-0.000316754
-0.000209197
-9.29262e-05
3.20567e-05
0.000165756
0.000308184
0.000459362
0.000619312
0.000788043
0.00096555
0.0011518
0.00134673
0.00155025
0.00176221
0.00198245
0.0022108
0.00244702
0.00269085
0.00294198
0.00320003
0.00346459
0.00373518
0.00401126
0.00429221
0.00457738
0.00486605
0.00515745
0.00545077
0.00574514
0.00603961
0.0063332
0.00662484
0.00691343
0.00719784
0.00747688
0.00774938
0.00801412
0.00826989
0.00851549
0.00874977
0.00897158
0.00917985
0.00937354
0.0095517
0.00971345
0.00985799
0.00998464
0.0100928
0.0101821
0.0102522
0.0103029
0.0103343
0.0103464
0.0103395
0.0103141
0.0102707
0.01021
0.0101327
0.0100397
0.00993209
0.00981079
0.00967695
0.00953171
0.00937626
0.00921178