/*--------------------------------*- C++ -*----------------------------------*\
| =========                 |                                                 |
| \\      /  F ield         | OpenFOAM: The Open Source CFD Toolbox           |
|  \\    /   O peration     | Version:  2512                                  |
|   \\  /    A nd           | Website:  www.openfoam.com                      |
|    \\/     M anipulation  |                                                 |
\*---------------------------------------------------------------------------*/
FoamFile
{
    version     2.0;
    format      ascii;
    arch        "LSB;label=32;scalar=64";
    class       volVectorField;
    location    "0.18";
    object      U;
}
// * * * * * * * * * * * * * * * * * * * * * * * * * * * * * * * * * * * * * //

dimensions      [0 1 -1 0 0 0 0];

internalField   nonuniform List<vector> 
10000
(
(3.47938e-06 -2.38959e-06 0)
(1.12169e-05 -4.57055e-06 0)
(2.10907e-05 -4.51095e-06 0)
(2.66425e-05 -2.71854e-06 0)
(2.58572e-05 -2.87152e-07 0)
(1.73756e-05 2.34505e-06 0)
(9.43689e-07 4.95457e-06 0)
(-2.3258e-05 7.42715e-06 0)
(-5.48421e-05 9.70805e-06 0)
(-9.32898e-05 1.17743e-05 0)
(-0.000138013 1.36268e-05 0)
(-0.000188408 1.52754e-05 0)
(-0.000243874 1.67256e-05 0)
(-0.000303822 1.79838e-05 0)
(-0.000367683 1.90635e-05 0)
(-0.000434917 1.99805e-05 0)
(-0.000505018 2.07449e-05 0)
(-0.000577506 2.1366e-05 0)
(-0.000651934 2.18586e-05 0)
(-0.000727885 2.22348e-05 0)
(-0.000804971 2.2501e-05 0)
(-0.000882832 2.26637e-05 0)
(-0.000961135 2.27315e-05 0)
(-0.00103957 2.27145e-05 0)
(-0.00111784 2.26209e-05 0)
(-0.00119569 2.24543e-05 0)
(-0.00127285 2.22171e-05 0)
(-0.00134911 2.19144e-05 0)
(-0.00142422 2.15528e-05 0)
(-0.001498 2.11367e-05 0)
(-0.00157023 2.06669e-05 0)
(-0.00164073 2.01441e-05 0)
(-0.00170932 1.95697e-05 0)
(-0.00177581 1.89463e-05 0)
(-0.00184006 1.82768e-05 0)
(-0.00190188 1.75636e-05 0)
(-0.00196111 1.68066e-05 0)
(-0.0020176 1.6004e-05 0)
(-0.0020712 1.51543e-05 0)
(-0.00212174 1.42583e-05 0)
(-0.00216907 1.33186e-05 0)
(-0.00221305 1.23375e-05 0)
(-0.00225352 1.13153e-05 0)
(-0.00229035 1.02509e-05 0)
(-0.00232338 9.14341e-06 0)
(-0.00235249 7.99297e-06 0)
(-0.00237753 6.80125e-06 0)
(-0.00239837 5.57117e-06 0)
(-0.0024149 4.30555e-06 0)
(-0.00242699 3.00664e-06 0)
(-0.00243454 1.6762e-06 0)
(-0.00243745 3.15976e-07 0)
(-0.00243564 -1.07135e-06 0)
(-0.00242902 -2.48186e-06 0)
(-0.00241754 -3.91076e-06 0)
(-0.00240115 -5.35246e-06 0)
(-0.00237983 -6.80098e-06 0)
(-0.00235355 -8.25082e-06 0)
(-0.00232234 -9.69698e-06 0)
(-0.00228621 -1.11344e-05 0)
(-0.00224523 -1.25571e-05 0)
(-0.00219947 -1.39567e-05 0)
(-0.00214902 -1.5324e-05 0)
(-0.00209401 -1.665e-05 0)
(-0.0020346 -1.79272e-05 0)
(-0.00197097 -1.91486e-05 0)
(-0.00190332 -2.03069e-05 0)
(-0.00183189 -2.13933e-05 0)
(-0.00175694 -2.23983e-05 0)
(-0.00167877 -2.33123e-05 0)
(-0.00159769 -2.41263e-05 0)
(-0.00151406 -2.48327e-05 0)
(-0.00142825 -2.54245e-05 0)
(-0.00134065 -2.58946e-05 0)
(-0.00125169 -2.62358e-05 0)
(-0.00116183 -2.64405e-05 0)
(-0.00107152 -2.65012e-05 0)
(-0.00098125 -2.6412e-05 0)
(-0.000891531 -2.61683e-05 0)
(-0.000802879 -2.5767e-05 0)
(-0.000715825 -2.52048e-05 0)
(-0.000630911 -2.4478e-05 0)
(-0.000548687 -2.35831e-05 0)
(-0.000469705 -2.25174e-05 0)
(-0.000394522 -2.12797e-05 0)
(-0.000323691 -1.98703e-05 0)
(-0.000257759 -1.82902e-05 0)
(-0.000197264 -1.65411e-05 0)
(-0.000142726 -1.46249e-05 0)
(-9.46428e-05 -1.25456e-05 0)
(-5.34765e-05 -1.03102e-05 0)
(-1.964e-05 -7.93078e-06 0)
(6.52718e-06 -5.42814e-06 0)
(2.47984e-05 -2.83869e-06 0)
(3.51237e-05 -2.29846e-07 0)
(3.77365e-05 2.27054e-06 0)
(3.33168e-05 4.42772e-06 0)
(2.33374e-05 5.78652e-06 0)
(1.11183e-05 5.50208e-06 0)
(2.51292e-06 2.51497e-06 0)
(6.13392e-06 -1.15579e-05 0)
(1.89843e-05 -1.71609e-05 0)
(2.95744e-05 -1.29984e-05 0)
(2.91697e-05 -2.44256e-06 0)
(1.24691e-05 1.12028e-05 0)
(-2.30646e-05 2.61323e-05 0)
(-7.83673e-05 4.12615e-05 0)
(-0.000153451 5.59379e-05 0)
(-0.000247646 6.97849e-05 0)
(-0.000359885 8.2607e-05 0)
(-0.000488874 9.43095e-05 0)
(-0.000633179 0.00010486 0)
(-0.000791314 0.000114261 0)
(-0.000961786 0.000122539 0)
(-0.00114312 0.00012974 0)
(-0.0013339 0.000135917 0)
(-0.00153276 0.000141124 0)
(-0.00173839 0.000145419 0)
(-0.00194957 0.000148863 0)
(-0.00216515 0.000151515 0)
(-0.00238403 0.000153429 0)
(-0.00260521 0.000154651 0)
(-0.00282773 0.000155231 0)
(-0.00305071 0.000155217 0)
(-0.00327331 0.00015465 0)
(-0.00349475 0.000153568 0)
(-0.00371432 0.000151999 0)
(-0.00393133 0.000149973 0)
(-0.00414512 0.000147519 0)
(-0.0043551 0.000144662 0)
(-0.00456067 0.000141419 0)
(-0.00476129 0.000137807 0)
(-0.00495643 0.000133837 0)
(-0.00514558 0.000129522 0)
(-0.00532823 0.000124874 0)
(-0.00550392 0.000119903 0)
(-0.00567217 0.000114615 0)
(-0.00583252 0.000109015 0)
(-0.00598453 0.000103104 0)
(-0.00612776 9.68886e-05 0)
(-0.00626177 9.03734e-05 0)
(-0.00638614 8.3565e-05 0)
(-0.00650045 7.64684e-05 0)
(-0.0066043 6.9088e-05 0)
(-0.00669728 6.14293e-05 0)
(-0.00677902 5.35e-05 0)
(-0.00684914 4.53099e-05 0)
(-0.00690729 3.6871e-05 0)
(-0.00695312 2.81976e-05 0)
(-0.00698633 1.93053e-05 0)
(-0.00700663 1.0212e-05 0)
(-0.00701375 9.37507e-07 0)
(-0.00700746 -8.49546e-06 0)
(-0.00698758 -1.80609e-05 0)
(-0.00695394 -2.77297e-05 0)
(-0.00690643 -3.74699e-05 0)
(-0.00684499 -4.72464e-05 0)
(-0.00676961 -5.70218e-05 0)
(-0.00668032 -6.67565e-05 0)
(-0.00657722 -7.64085e-05 0)
(-0.00646049 -8.59338e-05 0)
(-0.00633033 -9.52847e-05 0)
(-0.00618706 -0.000104411 0)
(-0.00603103 -0.000113258 0)
(-0.00586269 -0.000121774 0)
(-0.00568255 -0.000129906 0)
(-0.00549119 -0.000137598 0)
(-0.0052893 -0.000144797 0)
(-0.00507761 -0.000151446 0)
(-0.00485694 -0.000157489 0)
(-0.0046282 -0.000162873 0)
(-0.00439236 -0.000167542 0)
(-0.00415046 -0.000171447 0)
(-0.00390362 -0.00017454 0)
(-0.00365301 -0.000176774 0)
(-0.00339988 -0.000178106 0)
(-0.00314553 -0.000178497 0)
(-0.0028913 -0.00017791 0)
(-0.00263859 -0.000176315 0)
(-0.00238884 -0.000173684 0)
(-0.0021435 -0.000169997 0)
(-0.00190407 -0.000165238 0)
(-0.00167204 -0.000159395 0)
(-0.00144893 -0.000152462 0)
(-0.00123625 -0.00014444 0)
(-0.00103548 -0.000135341 0)
(-0.00084807 -0.000125181 0)
(-0.000675448 -0.000113993 0)
(-0.000518954 -0.000101818 0)
(-0.000379839 -8.87209e-05 0)
(-0.000259225 -7.47914e-05 0)
(-0.00015805 -6.01617e-05 0)
(-7.70002e-05 -4.50267e-05 0)
(-1.63996e-05 -2.96801e-05 0)
(2.39405e-05 -1.45797e-05 0)
(4.49579e-05 -4.4905e-07 0)
(4.8627e-05 1.15571e-05 0)
(3.84196e-05 1.95815e-05 0)
(2.06807e-05 2.0701e-05 0)
(5.48289e-06 1.11058e-05 0)
(5.26641e-06 -2.19119e-05 0)
(1.42766e-05 -2.8737e-05 0)
(1.50391e-05 -1.34635e-05 0)
(-2.76647e-06 1.48842e-05 0)
(-4.5159e-05 5.05251e-05 0)
(-0.000115266 8.96198e-05 0)
(-0.000214538 0.000129582 0)
(-0.000343123 0.000168769 0)
(-0.000500259 0.000206157 0)
(-0.000684584 0.000241114 0)
(-0.000894338 0.000273292 0)
(-0.00112752 0.00030252 0)
(-0.001382 0.00032874 0)
(-0.00165559 0.000351973 0)
(-0.00194612 0.000372299 0)
(-0.00225143 0.000389826 0)
(-0.00256945 0.000404678 0)
(-0.0028982 0.000416995 0)
(-0.00323576 0.000426925 0)
(-0.00358033 0.000434613 0)
(-0.0039302 0.0004402 0)
(-0.00428379 0.00044382 0)
(-0.00463957 0.000445601 0)
(-0.00499613 0.000445666 0)
(-0.00535214 0.000444128 0)
(-0.00570635 0.000441089 0)
(-0.00605759 0.000436637 0)
(-0.00640475 0.000430856 0)
(-0.00674678 0.000423823 0)
(-0.00708268 0.000415603 0)
(-0.00741153 0.000406252 0)
(-0.00773241 0.00039582 0)
(-0.00804446 0.000384347 0)
(-0.00834686 0.000371869 0)
(-0.0086388 0.000358418 0)
(-0.00891951 0.000344021 0)
(-0.00918821 0.0003287 0)
(-0.00944419 0.000312474 0)
(-0.00968671 0.000295359 0)
(-0.00991508 0.000277369 0)
(-0.0101286 0.000258522 0)
(-0.0103266 0.000238834 0)
(-0.0105084 0.000218321 0)
(-0.0106733 0.000197004 0)
(-0.0108208 0.000174902 0)
(-0.0109503 0.000152041 0)
(-0.0110611 0.000128452 0)
(-0.0111527 0.000104169 0)
(-0.0112246 7.9233e-05 0)
(-0.0112763 5.36903e-05 0)
(-0.0113074 2.75937e-05 0)
(-0.0113174 1.00328e-06 0)
(-0.011306 -2.60139e-05 0)
(-0.0112729 -5.3383e-05 0)
(-0.011218 -8.10215e-05 0)
(-0.0111409 -0.000108839 0)
(-0.0110418 -0.000136737 0)
(-0.0109204 -0.00016461 0)
(-0.010777 -0.000192343 0)
(-0.0106118 -0.000219818 0)
(-0.0104249 -0.000246906 0)
(-0.0102167 -0.000273474 0)
(-0.00998786 -0.000299383 0)
(-0.00973882 -0.000324487 0)
(-0.00947032 -0.000348637 0)
(-0.0091832 -0.000371681 0)
(-0.00887839 -0.000393465 0)
(-0.00855696 -0.000413835 0)
(-0.00822009 -0.000432637 0)
(-0.00786909 -0.000449717 0)
(-0.00750538 -0.000464924 0)
(-0.00713049 -0.000478109 0)
(-0.00674607 -0.000489132 0)
(-0.00635387 -0.000497857 0)
(-0.00595575 -0.000504156 0)
(-0.00555365 -0.000507912 0)
(-0.0051496 -0.000509016 0)
(-0.00474573 -0.000507372 0)
(-0.00434421 -0.000502894 0)
(-0.00394727 -0.000495513 0)
(-0.00355719 -0.000485173 0)
(-0.00317629 -0.000471834 0)
(-0.00280689 -0.000455475 0)
(-0.00245132 -0.000436093 0)
(-0.0021119 -0.000413706 0)
(-0.00179089 -0.00038836 0)
(-0.00149052 -0.000360128 0)
(-0.0012129 -0.000329121 0)
(-0.000960027 -0.000295498 0)
(-0.000733723 -0.00025948 0)
(-0.000535578 -0.000221371 0)
(-0.00036687 -0.000181599 0)
(-0.000228457 -0.000140765 0)
(-0.000120637 -9.97281e-05 0)
(-4.2945e-05 -5.97353e-05 0)
(6.11287e-06 -2.26055e-05 0)
(2.93554e-05 8.98741e-06 0)
(3.13344e-05 3.11663e-05 0)
(1.96104e-05 3.84368e-05 0)
(5.76042e-06 2.32872e-05 0)
(3.19302e-06 -2.86935e-05 0)
(3.46189e-06 -2.92908e-05 0)
(-1.33171e-05 4.04628e-06 0)
(-5.63251e-05 5.79015e-05 0)
(-0.000131357 0.000123781 0)
(-0.000241785 0.000195613 0)
(-0.000389156 0.0002692 0)
(-0.000573645 0.000341713 0)
(-0.000794416 0.000411278 0)
(-0.00104989 0.000476693 0)
(-0.00133799 0.000537231 0)
(-0.00165629 0.000592483 0)
(-0.0020022 0.00064227 0)
(-0.002373 0.000686574 0)
(-0.00276594 0.00072548 0)
(-0.0031783 0.000759143 0)
(-0.00360741 0.000787769 0)
(-0.00405071 0.00081159 0)
(-0.00450571 0.000830856 0)
(-0.00497004 0.000845824 0)
(-0.00544146 0.000856745 0)
(-0.00591785 0.000863865 0)
(-0.00639719 0.000867422 0)
(-0.00687759 0.000867638 0)
(-0.00735726 0.000864722 0)
(-0.00783452 0.000858864 0)
(-0.00830777 0.00085024 0)
(-0.00877553 0.000839008 0)
(-0.00923635 0.000825309 0)
(-0.0096889 0.000809271 0)
(-0.0101319 0.000791004 0)
(-0.0105641 0.000770604 0)
(-0.0109843 0.000748155 0)
(-0.0113915 0.000723731 0)
(-0.0117844 0.000697394 0)
(-0.0121621 0.000669197 0)
(-0.0125236 0.000639187 0)
(-0.0128677 0.000607404 0)
(-0.0131936 0.000573886 0)
(-0.0135003 0.000538668 0)
(-0.0137869 0.000501785 0)
(-0.0140525 0.00046327 0)
(-0.0142961 0.00042316 0)
(-0.0145169 0.000381497 0)
(-0.0147141 0.000338326 0)
(-0.014887 0.000293702 0)
(-0.0150346 0.000247685 0)
(-0.0151564 0.000200346 0)
(-0.0152515 0.000151767 0)
(-0.0153195 0.000102039 0)
(-0.0153596 5.12672e-05 0)
(-0.0153714 -4.30641e-07 0)
(-0.0153545 -5.29226e-05 0)
(-0.0153085 -0.000106062 0)
(-0.0152331 -0.000159689 0)
(-0.0151281 -0.000213628 0)
(-0.0149935 -0.000267688 0)
(-0.0148291 -0.000321667 0)
(-0.0146353 -0.000375345 0)
(-0.0144122 -0.00042849 0)
(-0.0141602 -0.000480857 0)
(-0.0138799 -0.000532188 0)
(-0.0135719 -0.000582218 0)
(-0.013237 -0.00063067 0)
(-0.0128762 -0.000677259 0)
(-0.0124905 -0.000721695 0)
(-0.0120813 -0.000763685 0)
(-0.01165 -0.000802933 0)
(-0.0111982 -0.000839144 0)
(-0.0107276 -0.000872028 0)
(-0.01024 -0.000901296 0)
(-0.00973762 -0.000926671 0)
(-0.00922254 -0.000947883 0)
(-0.00869712 -0.000964676 0)
(-0.00816379 -0.000976808 0)
(-0.00762515 -0.000984057 0)
(-0.00708388 -0.000986222 0)
(-0.00654276 -0.000983121 0)
(-0.00600466 -0.000974599 0)
(-0.00547253 -0.000960529 0)
(-0.00494934 -0.000940813 0)
(-0.00443814 -0.000915384 0)
(-0.00394196 -0.000884216 0)
(-0.00346382 -0.000847318 0)
(-0.00300674 -0.000804747 0)
(-0.00257363 -0.000756614 0)
(-0.00216735 -0.000703089 0)
(-0.00179057 -0.00064442 0)
(-0.00144582 -0.00058095 0)
(-0.00113535 -0.000513149 0)
(-0.000861092 -0.000441649 0)
(-0.000624565 -0.000367311 0)
(-0.000426736 -0.000291308 0)
(-0.000267868 -0.000215256 0)
(-0.000147318 -0.000141392 0)
(-6.32833e-05 -7.28336e-05 0)
(-1.25321e-05 -1.39303e-05 0)
(9.94326e-06 2.93351e-05 0)
(1.18671e-05 4.88644e-05 0)
(4.43762e-06 3.32927e-05 0)
(5.80674e-07 -2.82621e-05 0)
(-1.05189e-05 -1.32925e-05 0)
(-4.94352e-05 4.6037e-05 0)
(-0.000122731 0.000132848 0)
(-0.00023527 0.000236081 0)
(-0.000390149 0.000347697 0)
(-0.000588737 0.000461907 0)
(-0.000831065 0.000574661 0)
(-0.00111613 0.000683174 0)
(-0.00144215 0.000785595 0)
(-0.00180678 0.000880733 0)
(-0.00220729 0.000967881 0)
(-0.0026407 0.00104668 0)
(-0.00310386 0.00111703 0)
(-0.0035936 0.00117899 0)
(-0.00410672 0.00123276 0)
(-0.00464007 0.00127859 0)
(-0.00519057 0.00131683 0)
(-0.00575528 0.00134784 0)
(-0.00633132 0.00137198 0)
(-0.006916 0.00138963 0)
(-0.00750672 0.00140118 0)
(-0.00810102 0.00140698 0)
(-0.00869658 0.00140738 0)
(-0.0092912 0.00140269 0)
(-0.00988279 0.00139322 0)
(-0.0104694 0.00137924 0)
(-0.0110491 0.00136101 0)
(-0.0116203 0.00133875 0)
(-0.0121811 0.00131267 0)
(-0.0127299 0.00128294 0)
(-0.0132654 0.00124971 0)
(-0.0137859 0.00121313 0)
(-0.0142901 0.00117333 0)
(-0.0147766 0.0011304 0)
(-0.0152441 0.00108443 0)
(-0.0156912 0.0010355 0)
(-0.0161169 0.000983693 0)
(-0.0165198 0.000929064 0)
(-0.0168987 0.000871677 0)
(-0.0172526 0.000811594 0)
(-0.0175803 0.000748877 0)
(-0.0178807 0.000683591 0)
(-0.0181527 0.000615807 0)
(-0.0183955 0.000545604 0)
(-0.0186078 0.000473075 0)
(-0.018789 0.000398322 0)
(-0.0189379 0.000321465 0)
(-0.019054 0.000242639 0)
(-0.0191363 0.000161996 0)
(-0.0191842 7.97082e-05 0)
(-0.019197 -4.03214e-06 0)
(-0.0191744 -8.90105e-05 0)
(-0.0191157 -0.000174989 0)
(-0.0190208 -0.000261708 0)
(-0.0188893 -0.000348883 0)
(-0.0187213 -0.000436207 0)
(-0.0185167 -0.000523353 0)
(-0.0182758 -0.000609969 0)
(-0.0179989 -0.000695683 0)
(-0.0176864 -0.000780103 0)
(-0.0173391 -0.000862817 0)
(-0.0169578 -0.000943396 0)
(-0.0165435 -0.0010214 0)
(-0.0160973 -0.00109638 0)
(-0.0156207 -0.00116786 0)
(-0.0151152 -0.00123539 0)
(-0.0145826 -0.00129849 0)
(-0.0140248 -0.0013567 0)
(-0.013444 -0.00140955 0)
(-0.0128424 -0.00145658 0)
(-0.0122226 -0.00149735 0)
(-0.0115873 -0.00153144 0)
(-0.0109392 -0.00155845 0)
(-0.0102815 -0.00157799 0)
(-0.00961709 -0.00158971 0)
(-0.0089494 -0.0015933 0)
(-0.00828178 -0.00158847 0)
(-0.00761769 -0.001575 0)
(-0.0069607 -0.00155267 0)
(-0.00631441 -0.00152137 0)
(-0.00568249 -0.00148098 0)
(-0.00506857 -0.00143149 0)
(-0.0044763 -0.00137293 0)
(-0.00390925 -0.00130544 0)
(-0.00337092 -0.0012292 0)
(-0.00286464 -0.00114453 0)
(-0.0023936 -0.00105187 0)
(-0.00196071 -0.000951821 0)
(-0.00156859 -0.000845167 0)
(-0.00121945 -0.000732964 0)
(-0.000914975 -0.000616606 0)
(-0.000656251 -0.000497948 0)
(-0.000443559 -0.000379461 0)
(-0.000276209 -0.000264456 0)
(-0.000152327 -0.000157385 0)
(-6.86162e-05 -6.4231e-05 0)
(-2.00604e-05 7.05368e-06 0)
(4.62881e-07 4.59975e-05 0)
(2.37868e-06 3.79511e-05 0)
(-2.15785e-06 -1.99951e-05 0)
(-2.58154e-05 2.18286e-05 0)
(-8.93788e-05 0.000116141 0)
(-0.000196076 0.0002436 0)
(-0.0003492 0.00039116 0)
(-0.000551258 0.00054908 0)
(-0.00080319 0.00071014 0)
(-0.00110468 0.000869139 0)
(-0.00145446 0.0010224 0)
(-0.00185049 0.00116739 0)
(-0.00229019 0.00130242 0)
(-0.00277052 0.00142644 0)
(-0.00328819 0.00153889 0)
(-0.00383973 0.00163953 0)
(-0.00442157 0.00172838 0)
(-0.00503012 0.00180565 0)
(-0.00566185 0.00187166 0)
(-0.00631326 0.00192683 0)
(-0.00698097 0.00197164 0)
(-0.00766173 0.00200658 0)
(-0.00835241 0.00203217 0)
(-0.00905 0.00204891 0)
(-0.00975165 0.00205731 0)
(-0.0104547 0.00205784 0)
(-0.0111565 0.00205096 0)
(-0.0118546 0.00203708 0)
(-0.0125468 0.00201661 0)
(-0.0132308 0.00198989 0)
(-0.0139046 0.00195725 0)
(-0.0145661 0.00191898 0)
(-0.0152135 0.00187535 0)
(-0.0158449 0.00182659 0)
(-0.0164586 0.00177289 0)
(-0.0170529 0.00171443 0)
(-0.0176262 0.00165138 0)
(-0.0181769 0.00158387 0)
(-0.0187036 0.00151202 0)
(-0.0192047 0.00143595 0)
(-0.0196788 0.00135575 0)
(-0.0201246 0.00127152 0)
(-0.0205407 0.00118336 0)
(-0.0209257 0.00109136 0)
(-0.0212784 0.000995634 0)
(-0.0215976 0.000896282 0)
(-0.0218821 0.000793432 0)
(-0.0221307 0.000687221 0)
(-0.0223424 0.000577806 0)
(-0.0225162 0.000465366 0)
(-0.0226511 0.000350102 0)
(-0.0227462 0.000232241 0)
(-0.0228007 0.000112037 0)
(-0.022814 -1.02268e-05 0)
(-0.0227855 -0.000134235 0)
(-0.0227147 -0.00025964 0)
(-0.0226012 -0.000386063 0)
(-0.0224448 -0.000513092 0)
(-0.0222454 -0.000640279 0)
(-0.0220032 -0.000767149 0)
(-0.0217183 -0.000893191 0)
(-0.0213912 -0.00101787 0)
(-0.0210225 -0.00114061 0)
(-0.0206129 -0.00126083 0)
(-0.0201635 -0.0013779 0)
(-0.0196755 -0.00149119 0)
(-0.0191502 -0.00160005 0)
(-0.0185893 -0.00170381 0)
(-0.0179947 -0.00180181 0)
(-0.0173683 -0.00189336 0)
(-0.0167125 -0.00197779 0)
(-0.0160298 -0.00205444 0)
(-0.0153228 -0.00212266 0)
(-0.0145945 -0.00218182 0)
(-0.0138479 -0.0022313 0)
(-0.0130864 -0.00227053 0)
(-0.0123135 -0.00229898 0)
(-0.0115328 -0.00231614 0)
(-0.0107481 -0.00232157 0)
(-0.00996318 -0.00231487 0)
(-0.0091822 -0.00229572 0)
(-0.00840922 -0.00226384 0)
(-0.00764839 -0.00221906 0)
(-0.00690391 -0.00216127 0)
(-0.00617996 -0.00209044 0)
(-0.0054807 -0.00200668 0)
(-0.0048102 -0.00191017 0)
(-0.00417243 -0.00180126 0)
(-0.00357117 -0.00168044 0)
(-0.00300998 -0.00154839 0)
(-0.00249215 -0.00140599 0)
(-0.00202057 -0.00125445 0)
(-0.0015977 -0.0010953 0)
(-0.00122541 -0.000930528 0)
(-0.00090492 -0.000762739 0)
(-0.000636602 -0.000595303 0)
(-0.000419862 -0.000432615 0)
(-0.00025296 -0.000280413 0)
(-0.000132806 -0.00014619 0)
(-5.47208e-05 -3.96347e-05 0)
(-1.27081e-05 2.67878e-05 0)
(4.68539e-08 3.59755e-05 0)
(-4.84696e-06 -3.62876e-06 0)
(-4.14166e-05 7.73095e-05 0)
(-0.000130758 0.000216235 0)
(-0.000272416 0.000392381 0)
(-0.000467817 0.000591231 0)
(-0.000718616 0.000801675 0)
(-0.0010251 0.00101531 0)
(-0.00138646 0.0012259 0)
(-0.00180103 0.00142897 0)
(-0.00226648 0.0016213 0)
(-0.00277991 0.00180072 0)
(-0.00333801 0.00196584 0)
(-0.0039372 0.00211584 0)
(-0.00457371 0.00225035 0)
(-0.00524366 0.00236932 0)
(-0.00594312 0.00247296 0)
(-0.0066682 0.00256165 0)
(-0.00741507 0.00263587 0)
(-0.00818 0.00269622 0)
(-0.00895937 0.00274331 0)
(-0.00974968 0.00277779 0)
(-0.0105476 0.00280033 0)
(-0.0113499 0.00281155 0)
(-0.0121535 0.00281209 0)
(-0.0129556 0.00280254 0)
(-0.0137534 0.00278345 0)
(-0.0145443 0.00275534 0)
(-0.0153257 0.00271868 0)
(-0.0160952 0.00267392 0)
(-0.0168507 0.00262144 0)
(-0.0175899 0.0025616 0)
(-0.0183107 0.00249471 0)
(-0.0190112 0.00242104 0)
(-0.0196894 0.00234086 0)
(-0.0203435 0.00225436 0)
(-0.0209717 0.00216175 0)
(-0.0215723 0.00206321 0)
(-0.0221436 0.00195887 0)
(-0.0226839 0.00184891 0)
(-0.0231917 0.00173344 0)
(-0.0236654 0.00161262 0)
(-0.0241035 0.00148658 0)
(-0.0245047 0.00135547 0)
(-0.0248675 0.00121944 0)
(-0.0251905 0.00107868 0)
(-0.0254726 0.000933385 0)
(-0.0257124 0.000783769 0)
(-0.0259089 0.000630083 0)
(-0.026061 0.000472606 0)
(-0.0261676 0.000311652 0)
(-0.026228 0.000147572 0)
(-0.0262414 -1.92446e-05 0)
(-0.0262071 -0.000188366 0)
(-0.0261246 -0.000359318 0)
(-0.0259936 -0.000531583 0)
(-0.0258137 -0.0007046 0)
(-0.025585 -0.000877764 0)
(-0.0253075 -0.00105043 0)
(-0.0249815 -0.0012219 0)
(-0.0246076 -0.00139145 0)
(-0.0241864 -0.00155832 0)
(-0.0237189 -0.00172169 0)
(-0.0232061 -0.00188075 0)
(-0.0226496 -0.00203462 0)
(-0.0220507 -0.00218244 0)
(-0.0214115 -0.00232331 0)
(-0.020734 -0.00245632 0)
(-0.0200206 -0.00258057 0)
(-0.0192737 -0.00269515 0)
(-0.0184963 -0.00279918 0)
(-0.0176913 -0.00289178 0)
(-0.0168622 -0.0029721 0)
(-0.0160123 -0.00303933 0)
(-0.0151454 -0.00309271 0)
(-0.0142654 -0.00313151 0)
(-0.0133763 -0.00315507 0)
(-0.0124825 -0.00316281 0)
(-0.0115883 -0.00315422 0)
(-0.0106982 -0.00312885 0)
(-0.00981679 -0.00308638 0)
(-0.00894868 -0.00302657 0)
(-0.00809857 -0.00294931 0)
(-0.0072711 -0.0028546 0)
(-0.00647089 -0.0027426 0)
(-0.00570243 -0.00261362 0)
(-0.00497011 -0.00246816 0)
(-0.00427809 -0.00230691 0)
(-0.00363028 -0.00213083 0)
(-0.00303026 -0.00194118 0)
(-0.00248121 -0.00173957 0)
(-0.0019858 -0.00152808 0)
(-0.00154612 -0.00130935 0)
(-0.00116356 -0.00108673 0)
(-0.000838672 -0.000864496 0)
(-0.000571083 -0.000648084 0)
(-0.000359361 -0.000444421 0)
(-0.000200831 -0.000262331 0)
(-9.1393e-05 -0.000112954 0)
(-2.64971e-05 -1.03021e-05 0)
(-2.32214e-06 2.68799e-05 0)
(-7.41423e-06 2.07869e-05 0)
(-5.67926e-05 0.000153445 0)
(-0.000172117 0.000347073 0)
(-0.00034922 0.000580201 0)
(-0.000587539 0.000837339 0)
(-0.000887701 0.00110638 0)
(-0.00124919 0.00137798 0)
(-0.00167054 0.00164508 0)
(-0.00214963 0.00190244 0)
(-0.00268371 0.00214628 0)
(-0.00326956 0.00237398 0)
(-0.00390357 0.00258377 0)
(-0.00458187 0.00277462 0)
(-0.0053004 0.002946 0)
(-0.006055 0.0030978 0)
(-0.00684144 0.00323021 0)
(-0.00765554 0.00334364 0)
(-0.00849316 0.00343866 0)
(-0.00935025 0.00351595 0)
(-0.0102229 0.00357627 0)
(-0.0111073 0.0036204 0)
(-0.0119997 0.00364914 0)
(-0.0128968 0.00366329 0)
(-0.013795 0.00366361 0)
(-0.0146913 0.00365085 0)
(-0.0155826 0.00362571 0)
(-0.016466 0.00358884 0)
(-0.0173386 0.00354085 0)
(-0.0181979 0.00348228 0)
(-0.0190412 0.00341364 0)
(-0.0198663 0.00333539 0)
(-0.0206708 0.00324792 0)
(-0.0214524 0.00315161 0)
(-0.022209 0.00304678 0)
(-0.0229386 0.00293371 0)
(-0.0236391 0.00281265 0)
(-0.0243087 0.00268385 0)
(-0.0249453 0.00254752 0)
(-0.0255473 0.00240384 0)
(-0.0261129 0.00225302 0)
(-0.0266403 0.00209524 0)
(-0.027128 0.0019307 0)
(-0.0275742 0.00175958 0)
(-0.0279775 0.00158212 0)
(-0.0283364 0.00139854 0)
(-0.0286495 0.00120911 0)
(-0.0289154 0.00101413 0)
(-0.0291329 0.00081392 0)
(-0.0293008 0.000608852 0)
(-0.0294181 0.00039934 0)
(-0.0294839 0.000185842 0)
(-0.0294972 -3.11311e-05 0)
(-0.0294574 -0.000251016 0)
(-0.0293639 -0.000473197 0)
(-0.0292163 -0.000697 0)
(-0.0290144 -0.000921698 0)
(-0.0287582 -0.00114651 0)
(-0.0284477 -0.00137059 0)
(-0.0280834 -0.00159306 0)
(-0.0276657 -0.00181296 0)
(-0.0271956 -0.00202932 0)
(-0.026674 -0.0022411 0)
(-0.0261021 -0.00244722 0)
(-0.0254816 -0.00264659 0)
(-0.0248142 -0.00283808 0)
(-0.0241019 -0.00302053 0)
(-0.0233471 -0.00319279 0)
(-0.0225524 -0.00335369 0)
(-0.0217205 -0.00350208 0)
(-0.0208547 -0.00363681 0)
(-0.0199583 -0.00375678 0)
(-0.019035 -0.00386089 0)
(-0.0180885 -0.00394811 0)
(-0.017123 -0.00401747 0)
(-0.0161428 -0.00406804 0)
(-0.0151523 -0.004099 0)
(-0.0141563 -0.00410961 0)
(-0.0131594 -0.00409921 0)
(-0.0121668 -0.00406727 0)
(-0.0111833 -0.0040134 0)
(-0.010214 -0.0039373 0)
(-0.0092641 -0.00383887 0)
(-0.00833859 -0.00371815 0)
(-0.00744249 -0.00357536 0)
(-0.0065807 -0.00341097 0)
(-0.00575796 -0.00322563 0)
(-0.00497876 -0.00302029 0)
(-0.00424735 -0.00279623 0)
(-0.00356758 -0.00255508 0)
(-0.0029429 -0.00229893 0)
(-0.00237621 -0.00203039 0)
(-0.00186984 -0.00175277 0)
(-0.0014254 -0.00147019 0)
(-0.00104371 -0.00118777 0)
(-0.000724735 -0.000911924 0)
(-0.000467467 -0.000650637 0)
(-0.000269801 -0.000413856 0)
(-0.000128372 -0.000213872 0)
(-4.02224e-05 -6.5813e-05 0)
(-4.60892e-06 1.06111e-05 0)
(-9.82957e-06 5.29866e-05 0)
(-7.16663e-05 0.000250006 0)
(-0.000212596 0.000508617 0)
(-0.000424913 0.000807182 0)
(-0.000706025 0.00112968 0)
(-0.00105544 0.00146335 0)
(-0.00147175 0.00179815 0)
(-0.00195274 0.00212635 0)
(-0.0024957 0.00244214 0)
(-0.00309744 0.00274124 0)
(-0.00375435 0.00302061 0)
(-0.00446251 0.00327819 0)
(-0.00521772 0.0035127 0)
(-0.00601565 0.00372349 0)
(-0.00685185 0.00391038 0)
(-0.00772184 0.00407353 0)
(-0.00862117 0.0042134 0)
(-0.00954542 0.00433062 0)
(-0.0104903 0.00442597 0)
(-0.0114515 0.00450034 0)
(-0.0124251 0.00455466 0)
(-0.013407 0.00458985 0)
(-0.0143936 0.00460689 0)
(-0.0153812 0.00460668 0)
(-0.0163663 0.00459013 0)
(-0.0173456 0.00455808 0)
(-0.018316 0.00451132 0)
(-0.0192744 0.00445061 0)
(-0.020218 0.0043766 0)
(-0.021144 0.00428994 0)
(-0.0220497 0.00419117 0)
(-0.0229327 0.0040808 0)
(-0.0237904 0.0039593 0)
(-0.0246206 0.00382707 0)
(-0.0254209 0.00368446 0)
(-0.0261892 0.00353182 0)
(-0.0269233 0.00336942 0)
(-0.0276213 0.00319756 0)
(-0.0282811 0.00301649 0)
(-0.0289008 0.00282645 0)
(-0.0294785 0.00262768 0)
(-0.0300124 0.00242045 0)
(-0.0305009 0.00220501 0)
(-0.0309421 0.00198165 0)
(-0.0313346 0.00175066 0)
(-0.0316767 0.00151239 0)
(-0.031967 0.00126721 0)
(-0.0322043 0.00101555 0)
(-0.0323871 0.000757867 0)
(-0.0325144 0.000494693 0)
(-0.0325851 0.000226606 0)
(-0.0325984 -4.57509e-05 0)
(-0.0325534 -0.000321671 0)
(-0.0324497 -0.000600379 0)
(-0.0322867 -0.000881032 0)
(-0.0320643 -0.00116272 0)
(-0.0317824 -0.00144446 0)
(-0.0314412 -0.00172522 0)
(-0.031041 -0.00200387 0)
(-0.0305825 -0.00227924 0)
(-0.0300666 -0.00255011 0)
(-0.0294944 -0.00281518 0)
(-0.0288672 -0.00307313 0)
(-0.0281869 -0.00332259 0)
(-0.0274552 -0.00356215 0)
(-0.0266745 -0.00379039 0)
(-0.0258473 -0.00400587 0)
(-0.0249764 -0.00420714 0)
(-0.0240649 -0.00439279 0)
(-0.0231162 -0.00456138 0)
(-0.022134 -0.00471155 0)
(-0.0211221 -0.00484196 0)
(-0.0200848 -0.00495134 0)
(-0.0190266 -0.00503847 0)
(-0.0179519 -0.00510223 0)
(-0.0168659 -0.00514162 0)
(-0.0157733 -0.00515571 0)
(-0.0146796 -0.00514373 0)
(-0.0135899 -0.00510504 0)
(-0.0125096 -0.00503916 0)
(-0.0114443 -0.00494577 0)
(-0.0103995 -0.00482477 0)
(-0.00938047 -0.00467624 0)
(-0.00839271 -0.00450052 0)
(-0.00744145 -0.00429818 0)
(-0.00653174 -0.00407012 0)
(-0.00566843 -0.00381753 0)
(-0.00485602 -0.00354203 0)
(-0.00409867 -0.00324565 0)
(-0.00340009 -0.00293096 0)
(-0.00276344 -0.00260115 0)
(-0.0021913 -0.00226016 0)
(-0.00168559 -0.00191284 0)
(-0.00124746 -0.00156514 0)
(-0.000877262 -0.00122433 0)
(-0.000574534 -0.00089932 0)
(-0.000337827 -0.000600971 0)
(-0.000164595 -0.000342448 0)
(-5.34939e-05 -0.000139615 0)
(-6.75717e-06 -1.26314e-05 0)
(-1.20891e-05 9.26251e-05 0)
(-8.58942e-05 0.000366433 0)
(-0.000251729 0.000700309 0)
(-0.000498545 0.00107284 0)
(-0.000821784 0.00146783 0)
(-0.00121983 0.00187214 0)
(-0.00169028 0.00227527 0)
(-0.00223014 0.00266903 0)
(-0.00283605 0.00304714 0)
(-0.00350429 0.00340495 0)
(-0.00423084 0.00373905 0)
(-0.00501139 0.00404715 0)
(-0.00584146 0.00432778 0)
(-0.00671639 0.00458015 0)
(-0.00763148 0.00480402 0)
(-0.00858199 0.00499955 0)
(-0.00956321 0.00516723 0)
(-0.0105705 0.00530777 0)
(-0.0115992 0.00542206 0)
(-0.012645 0.00551109 0)
(-0.0137035 0.00557594 0)
(-0.0147705 0.00561769 0)
(-0.015842 0.00563744 0)
(-0.0169142 0.0056363 0)
(-0.0179834 0.0056153 0)
(-0.019046 0.00557544 0)
(-0.0200986 0.00551767 0)
(-0.0211381 0.00544287 0)
(-0.0221612 0.00535186 0)
(-0.0231651 0.00524536 0)
(-0.0241468 0.00512407 0)
(-0.0251037 0.00498859 0)
(-0.0260331 0.00483949 0)
(-0.0269325 0.00467724 0)
(-0.0277994 0.00450231 0)
(-0.0286315 0.0043151 0)
(-0.0294265 0.00411597 0)
(-0.0301822 0.00390527 0)
(-0.0308964 0.00368333 0)
(-0.0315671 0.00345044 0)
(-0.0321922 0.00320692 0)
(-0.0327698 0.00295309 0)
(-0.0332981 0.00268927 0)
(-0.0337751 0.00241582 0)
(-0.0341993 0.00213312 0)
(-0.0345689 0.0018416 0)
(-0.0348824 0.00154171 0)
(-0.0351383 0.00123397 0)
(-0.0353353 0.000918981 0)
(-0.0354722 0.000597367 0)
(-0.0355479 0.000269848 0)
(-0.0355614 -6.27899e-05 0)
(-0.0355119 -0.000399682 0)
(-0.0353988 -0.000739883 0)
(-0.0352216 -0.00108237 0)
(-0.0349802 -0.00142602 0)
(-0.0346744 -0.00176966 0)
(-0.0343044 -0.00211201 0)
(-0.0338708 -0.00245173 0)
(-0.0333741 -0.00278738 0)
(-0.0328154 -0.00311748 0)
(-0.0321957 -0.00344046 0)
(-0.0315168 -0.00375473 0)
(-0.0307802 -0.00405861 0)
(-0.0299883 -0.00435042 0)
(-0.0291432 -0.00462843 0)
(-0.0282479 -0.0048909 0)
(-0.0273053 -0.0051361 0)
(-0.0263187 -0.00536229 0)
(-0.0252918 -0.00556778 0)
(-0.0242285 -0.0057509 0)
(-0.023133 -0.00591004 0)
(-0.0220098 -0.00604368 0)
(-0.0208637 -0.00615036 0)
(-0.0196996 -0.00622876 0)
(-0.0185228 -0.00627764 0)
(-0.0173385 -0.00629593 0)
(-0.0161525 -0.00628271 0)
(-0.0149703 -0.00623723 0)
(-0.0137978 -0.00615893 0)
(-0.0126406 -0.00604748 0)
(-0.0115048 -0.00590276 0)
(-0.0103961 -0.00572492 0)
(-0.00932015 -0.0055144 0)
(-0.0082826 -0.00527195 0)
(-0.00728882 -0.00499866 0)
(-0.00634395 -0.00469603 0)
(-0.00545281 -0.004366 0)
(-0.00461981 -0.00401103 0)
(-0.00384895 -0.00363417 0)
(-0.00314369 -0.00323917 0)
(-0.00250691 -0.00283061 0)
(-0.00194084 -0.00241401 0)
(-0.00144703 -0.00199608 0)
(-0.00102631 -0.00158486 0)
(-0.000678787 -0.00119003 0)
(-0.000403733 -0.000823195 0)
(-0.000199436 -0.00049814 0)
(-6.61047e-05 -0.000231165 0)
(-8.74618e-06 -4.25109e-05 0)
(-1.4197e-05 0.000139337 0)
(-9.94222e-05 0.000501987 0)
(-0.000289268 0.000921283 0)
(-0.000569577 0.00137631 0)
(-0.000933935 0.00185093 0)
(-0.00137959 0.00233189 0)
(-0.00190317 0.00280844 0)
(-0.00250081 0.0032721 0)
(-0.00316849 0.0037163 0)
(-0.00390192 0.00413604 0)
(-0.0046966 0.00452772 0)
(-0.00554784 0.00488881 0)
(-0.00645079 0.00521771 0)
(-0.00740052 0.00551353 0)
(-0.00839204 0.005776 0)
(-0.00942035 0.00600528 0)
(-0.0104805 0.00620189 0)
(-0.0115676 0.00636663 0)
(-0.0126768 0.0065005 0)
(-0.0138035 0.0066046 0)
(-0.0149432 0.00668016 0)
(-0.0160913 0.00672842 0)
(-0.0172438 0.00675064 0)
(-0.0183966 0.00674806 0)
(-0.0195456 0.0067219 0)
(-0.0206873 0.00667332 0)
(-0.021818 0.00660341 0)
(-0.0229342 0.00651319 0)
(-0.0240327 0.00640361 0)
(-0.0251104 0.00627555 0)
(-0.0261641 0.00612981 0)
(-0.027191 0.00596711 0)
(-0.0281882 0.00578811 0)
(-0.0291531 0.00559339 0)
(-0.0300831 0.0053835 0)
(-0.0309756 0.00515892 0)
(-0.0318282 0.0049201 0)
(-0.0326385 0.00466745 0)
(-0.0334043 0.00440137 0)
(-0.0341233 0.00412223 0)
(-0.0347934 0.00383042 0)
(-0.0354125 0.00352631 0)
(-0.0359786 0.00321032 0)
(-0.0364897 0.00288287 0)
(-0.0369441 0.00254442 0)
(-0.03734 0.0021955 0)
(-0.0376757 0.00183665 0)
(-0.0379497 0.00146853 0)
(-0.0381606 0.00109181 0)
(-0.038307 0.000707268 0)
(-0.0383877 0.000315766 0)
(-0.0384019 -8.17571e-05 0)
(-0.0383485 -0.000484268 0)
(-0.038227 -0.000890638 0)
(-0.0380369 -0.00129965 0)
(-0.0377779 -0.00170997 0)
(-0.03745 -0.00212019 0)
(-0.0370534 -0.0025288 0)
(-0.0365886 -0.0029342 0)