/*--------------------------------*- C++ -*----------------------------------*\
| =========                 |                                                 |
| \\      /  F ield         | OpenFOAM: The Open Source CFD Toolbox           |
|  \\    /   O peration     | Version:  2512                                  |
|   \\  /    A nd           | Website:  www.openfoam.com                      |
|    \\/     M anipulation  |                                                 |
\*---------------------------------------------------------------------------*/
FoamFile
{
    version     2.0;
    format      ascii;
    arch        "LSB;label=32;scalar=64";
    class       surfaceScalarField;
    location    "0.24";
    object      phi;
}
// * * * * * * * * * * * * * * * * * * * * * * * * * * * * * * * * * * * * * //

dimensions      [0 3 -1 0 0 0 0];

oriented        oriented;

internalField   nonuniform List<scalar> 
19800
(
6.28432e-11
-6.28851e-11
1.81166e-10
-1.18304e-10
2.81448e-10
-1.00287e-10
3.25915e-10
-4.44631e-11
2.95579e-10
3.03369e-11
1.82967e-10
1.12617e-10
-1.30991e-11
1.96066e-10
-2.90218e-10
2.77118e-10
-6.44057e-10
3.53837e-10
-1.06925e-09
4.25191e-10
-1.55992e-09
4.9067e-10
-2.10998e-09
5.5006e-10
-2.71335e-09
6.03374e-10
-3.36411e-09
6.50757e-10
-4.05653e-09
6.92415e-10
-4.78513e-09
7.286e-10
-5.54473e-09
7.59605e-10
-6.33046e-09
7.8573e-10
-7.13772e-09
8.07263e-10
-7.96221e-09
8.24485e-10
-8.79989e-09
8.37673e-10
-9.64697e-09
8.47083e-10
-1.04999e-08
8.52956e-10
-1.13554e-08
8.55514e-10
-1.22104e-08
8.54947e-10
-1.30618e-08
8.51427e-10
-1.39069e-08
8.45117e-10
-1.47431e-08
8.36161e-10
-1.55678e-08
8.24674e-10
-1.63785e-08
8.10748e-10
-1.7173e-08
7.94463e-10
-1.79489e-08
7.759e-10
-1.8704e-08
7.55117e-10
-1.94362e-08
7.32147e-10
-2.01432e-08
7.0702e-10
-2.08229e-08
6.79769e-10
-2.14734e-08
6.5042e-10
-2.20924e-08
6.18989e-10
-2.26779e-08
5.8549e-10
-2.32278e-08
5.49942e-10
-2.37402e-08
5.12369e-10
-2.4213e-08
4.72798e-10
-2.46442e-08
4.31263e-10
-2.5032e-08
3.87799e-10
-2.53745e-08
3.42456e-10
-2.56698e-08
2.95298e-10
-2.59162e-08
2.46402e-10
-2.61121e-08
1.95869e-10
-2.62559e-08
1.43811e-10
-2.63462e-08
9.0349e-11
-2.63818e-08
3.56235e-11
-2.63616e-08
-2.02054e-11
-2.62847e-08
-7.69564e-11
-2.61503e-08
-1.3442e-10
-2.59579e-08
-1.92371e-10
-2.57073e-08
-2.5057e-10
-2.53986e-08
-3.08757e-10
-2.50319e-08
-3.66655e-10
-2.46079e-08
-4.23976e-10
-2.41275e-08
-4.80412e-10
-2.35919e-08
-5.35641e-10
-2.30026e-08
-5.89333e-10
-2.23614e-08
-6.41145e-10
-2.16707e-08
-6.90731e-10
-2.09329e-08
-7.37746e-10
-2.01511e-08
-7.81847e-10
-1.93284e-08
-8.22686e-10
-1.84685e-08
-8.59928e-10
-1.75752e-08
-8.93251e-10
-1.66529e-08
-9.22345e-10
-1.5706e-08
-9.46914e-10
-1.47393e-08
-9.66689e-10
-1.37579e-08
-9.81423e-10
-1.2767e-08
-9.90893e-10
-1.17721e-08
-9.94906e-10
-1.07788e-08
-9.93305e-10
-9.79279e-09
-9.85963e-10
-8.82e-09
-9.72791e-10
-7.86627e-09
-9.53736e-10
-6.93748e-09
-9.2879e-10
-6.0395e-09
-8.9798e-10
-5.17813e-09
-8.61372e-10
-4.35905e-09
-8.19078e-10
-3.58779e-09
-7.71256e-10
-2.86968e-09
-7.18108e-10
-2.2098e-09
-6.59886e-10
-1.6129e-09
-5.96897e-10
-1.08338e-09
-5.29521e-10
-6.2516e-10
-4.5822e-10
-2.41599e-10
-3.83564e-10
6.46799e-11
-3.06282e-10
2.92011e-10
-2.27332e-10
4.40018e-10
-1.48006e-10
5.10178e-10
-7.01587e-11
5.06693e-10
3.48023e-12
4.37998e-10
6.86876e-11
3.19031e-10
1.18966e-10
1.75238e-10
1.43808e-10
4.9266e-11
1.26004e-10
4.93004e-11
1.13891e-10
-1.76759e-10
2.72543e-10
-2.76985e-10
3.63751e-10
-1.9148e-10
3.15623e-10
3.65505e-12
8.64877e-11
2.59475e-10
-3.45173e-10
5.4427e-10
-9.86819e-10
8.37713e-10
-1.83674e-09
1.12703e-09
-2.88733e-09
1.40442e-09
-4.12735e-09
1.66521e-09
-5.54339e-09
1.90671e-09
-7.12086e-09
2.12752e-09
-8.84464e-09
2.32715e-09
-1.06995e-08
2.50567e-09
-1.26706e-08
2.6635e-09
-1.47434e-08
2.80134e-09
-1.69038e-08
2.92002e-09
-1.91385e-08
3.02049e-09
-2.1435e-08
3.1037e-09
-2.37811e-08
3.17057e-09
-2.61655e-08
3.22208e-09
-2.85775e-08
3.25913e-09
-3.10071e-08
3.28254e-09
-3.34447e-08
3.29312e-09
-3.58813e-08
3.29156e-09
-3.83084e-08
3.27851e-09
-4.07179e-08
3.25457e-09
-4.3102e-08
3.22024e-09
-4.54533e-08
3.17598e-09
-4.77647e-08
3.12216e-09
-5.00293e-08
3.0591e-09
-5.22405e-08
2.98709e-09
-5.43917e-08
2.90636e-09
-5.64767e-08
2.81708e-09
-5.84891e-08
2.71941e-09
-6.04228e-08
2.61348e-09
-6.22718e-08
2.4994e-09
-6.403e-08
2.37726e-09
-6.56917e-08
2.24714e-09
-6.72509e-08
2.10916e-09
-6.8702e-08
1.96343e-09
-7.00392e-08
1.81005e-09
-7.12572e-08
1.64919e-09
-7.23504e-08
1.48103e-09
-7.33137e-08
1.30579e-09
-7.41421e-08
1.12372e-09
-7.48309e-08
9.35167e-10
-7.53755e-08
7.40489e-10
-7.57718e-08
5.40128e-10
-7.60161e-08
3.34579e-10
-7.61048e-08
1.24399e-10
-7.60353e-08
-8.97737e-11
-7.5805e-08
-3.07234e-10
-7.54122e-08
-5.27204e-10
-7.48558e-08
-7.48831e-10
-7.41351e-08
-9.71195e-10
-7.32506e-08
-1.19331e-09
-7.22031e-08
-1.41414e-09
-7.09945e-08
-1.63256e-09
-6.96275e-08
-1.84743e-09
-6.81056e-08
-2.05754e-09
-6.64333e-08
-2.26164e-09
-6.4616e-08
-2.45847e-09
-6.266e-08
-2.64673e-09
-6.05726e-08
-2.82513e-09
-5.83621e-08
-2.99237e-09
-5.60375e-08
-3.14719e-09
-5.36091e-08
-3.28834e-09
-5.10878e-08
-3.4146e-09
-4.84853e-08
-3.52482e-09
-4.58143e-08
-3.61793e-09
-4.30881e-08
-3.69292e-09
-4.03207e-08
-3.74885e-09
-3.75266e-08
-3.78493e-09
-3.47211e-08
-3.80046e-09
-3.19195e-08
-3.79485e-09
-2.91378e-08
-3.76764e-09
-2.63921e-08
-3.71854e-09
-2.36985e-08
-3.64737e-09
-2.10731e-08
-3.55411e-09
-1.85322e-08
-3.43891e-09
-1.60915e-08
-3.30207e-09
-1.37665e-08
-3.14407e-09
-1.15722e-08
-2.96555e-09
-9.52293e-09
-2.76738e-09
-7.63221e-09
-2.55061e-09
-5.91256e-09
-2.31655e-09
-4.37528e-09
-2.0668e-09
-3.0302e-09
-1.80331e-09
-1.88526e-09
-1.5285e-09
-9.46104e-10
-1.24544e-09
-2.15373e-10
-9.5806e-10
3.08181e-10
-6.71555e-10
6.3101e-10
-3.92984e-10
7.6665e-10
-1.32158e-10
7.38324e-10
9.70131e-11
5.82519e-10
2.74754e-10
3.5324e-10
3.73028e-10
1.25544e-10
3.53625e-10
1.74868e-10
9.99492e-11
-2.76713e-10
1.89405e-10
-3.66418e-10
1.44524e-10
-1.46597e-10
-1.17071e-10
2.65258e-10
-6.47731e-10
7.90135e-10
-1.47661e-09
1.37315e-09
-2.61573e-09
1.97683e-09
-4.06486e-09
2.57616e-09
-5.81526e-09
3.15483e-09
-7.85242e-09
3.70238e-09
-1.01581e-08
4.21238e-09
-1.27117e-08
4.68118e-09
-1.54916e-08
5.107e-09
-1.84753e-08
5.4894e-09
-2.16406e-08
5.82882e-09
-2.49656e-08
6.1263e-09
-2.84289e-08
6.38332e-09
-3.201e-08
6.60156e-09
-3.56891e-08
6.78283e-09
-3.94476e-08
6.92901e-09
-4.32674e-08
7.04196e-09
-4.71318e-08
7.12349e-09
-5.10246e-08
7.17531e-09
-5.49305e-08
7.19906e-09
-5.88352e-08
7.1962e-09
-6.27248e-08
7.16809e-09
-6.65862e-08
7.11597e-09
-7.04068e-08
7.04093e-09
-7.41748e-08
6.94392e-09
-7.78784e-08
6.82579e-09
-8.15066e-08
6.68723e-09
-8.50483e-08
6.52888e-09
-8.84932e-08
6.35123e-09
-9.18309e-08
6.15473e-09
-9.50512e-08
5.93973e-09
-9.81443e-08
5.70656e-09
-1.011e-07
5.45548e-09
-1.0391e-07
5.18673e-09
-1.06563e-07
4.90057e-09
-1.09051e-07
4.59723e-09
-1.11365e-07
4.277e-09
-1.13495e-07
3.94019e-09
-1.15433e-07
3.58717e-09
-1.1717e-07
3.21837e-09
-1.18699e-07
2.83432e-09
-1.20011e-07
2.43562e-09
-1.21099e-07
2.02302e-09
-1.21955e-07
1.59734e-09
-1.22575e-07
1.15956e-09
-1.22951e-07
7.10778e-10
-1.23079e-07
2.52248e-10
-1.22954e-07
-2.14643e-10
-1.22573e-07
-6.88344e-10
-1.21933e-07
-1.16716e-09
-1.21033e-07
-1.64926e-09
-1.19871e-07
-2.13263e-09
-1.18449e-07
-2.61515e-09
-1.16769e-07
-3.09457e-09
-1.14833e-07
-3.56849e-09
-1.12646e-07
-4.03442e-09
-1.10214e-07
-4.48979e-09
-1.07543e-07
-4.93192e-09
-1.04644e-07
-5.35809e-09
-1.01525e-07
-5.76555e-09
-9.81986e-08
-6.15154e-09
-9.46777e-08
-6.51329e-09
-9.09768e-08
-6.84809e-09
-8.71119e-08
-7.15327e-09
-8.31002e-08
-7.42627e-09
-7.89604e-08
-7.66465e-09
-7.47122e-08
-7.86609e-09
-7.03767e-08
-8.02846e-09
-6.59757e-08
-8.14982e-09
-6.15322e-08
-8.22845e-09
-5.70698e-08
-8.26287e-09
-5.26128e-08
-8.25187e-09
-4.81859e-08
-8.19452e-09
-4.38143e-08
-8.09019e-09
-3.95231e-08
-7.93855e-09
-3.53376e-08
-7.73963e-09
-3.12827e-08
-7.4938e-09
-2.7383e-08
-7.20178e-09
-2.36624e-08
-6.86468e-09
-2.01439e-08
-6.48402e-09
-1.68495e-08
-6.06177e-09
-1.37998e-08
-5.60037e-09
-1.10135e-08
-5.10282e-09
-8.50747e-09
-4.57281e-09
-6.29598e-09
-4.0148e-09
-4.39016e-09
-3.43432e-09
-2.79738e-09
-2.83823e-09
-1.52024e-09
-2.2352e-09
-5.55354e-10
-1.63644e-09
1.0829e-10
-1.05664e-09
4.9149e-10
-5.1536e-10
6.27517e-10
-3.89909e-11
5.65435e-10
3.36877e-10
3.73651e-10
5.64837e-10
1.43369e-10
5.83872e-10
3.18242e-10
4.5297e-11
-3.22011e-10
-3.06516e-12
-3.18064e-10
-2.65144e-10
1.1549e-10
-8.2271e-10
8.22814e-10
-1.72931e-09
1.69674e-09
-3.01606e-09
2.6599e-09
-4.69648e-09
3.65724e-09
-6.77074e-09
4.65043e-09
-9.22919e-09
5.61327e-09
-1.20551e-08
6.52825e-09
-1.52267e-08
7.38405e-09
-1.87194e-08
8.17381e-09
-2.25062e-08
8.8938e-09
-2.65593e-08
9.54254e-09
-3.08507e-08
1.01202e-08
-3.53522e-08
1.06279e-08
-4.00366e-08
1.10677e-08
-4.48771e-08
1.1442e-08
-4.98479e-08
1.17537e-08
-5.49245e-08
1.20056e-08
-6.00831e-08
1.22006e-08
-6.53012e-08
1.23416e-08
-7.05573e-08
1.24315e-08
-7.58311e-08
1.24728e-08
-8.11029e-08
1.2468e-08
-8.63542e-08
1.24194e-08
-9.15672e-08
1.2329e-08
-9.67248e-08
1.21986e-08
-1.01811e-07
1.20299e-08
-1.06809e-07
1.18243e-08
-1.11705e-07
1.15831e-08
-1.16484e-07
1.13072e-08
-1.2113e-07
1.09977e-08
-1.25631e-07
1.06553e-08
-1.29972e-07
1.02807e-08
-1.34139e-07
9.87439e-09
-1.38121e-07
9.43698e-09
-1.41903e-07
8.96893e-09
-1.45473e-07
8.47071e-09
-1.48819e-07
7.94282e-09
-1.51928e-07
7.38578e-09
-1.54788e-07
6.80021e-09
-1.57387e-07
6.18678e-09
-1.59715e-07
5.54631e-09
-1.61761e-07
4.87975e-09
-1.63513e-07
4.18821e-09
-1.64963e-07
3.47299e-09
-1.66101e-07
2.73559e-09
-1.6692e-07
1.97771e-09
-1.6741e-07
1.20129e-09
-1.67566e-07
4.08515e-10
-1.67383e-07
-3.98208e-10
-1.66855e-07
-1.2162e-09
-1.6598e-07
-2.04252e-09
-1.64755e-07
-2.87401e-09
-1.6318e-07
-3.70724e-09
-1.61257e-07
-4.53855e-09
-1.58987e-07
-5.36408e-09
-1.56376e-07
-6.17975e-09
-1.53429e-07
-6.98132e-09
-1.50155e-07
-7.76436e-09
-1.46562e-07
-8.52434e-09
-1.42664e-07
-9.25665e-09
-1.38473e-07
-9.95659e-09
-1.34005e-07
-1.06195e-08
-1.29277e-07
-1.12406e-08
-1.2431e-07
-1.18154e-08
-1.19124e-07
-1.23394e-08
-1.13742e-07
-1.28082e-08
-1.08189e-07
-1.32176e-08
-1.02491e-07
-1.35638e-08
-9.66765e-08
-1.38433e-08
-9.07737e-08
-1.40526e-08
-8.48132e-08
-1.41889e-08
-7.88263e-08
-1.42498e-08
-7.28448e-08
-1.42333e-08
-6.69016e-08
-1.41377e-08
-6.10297e-08
-1.39622e-08
-5.52621e-08
-1.37061e-08
-4.9632e-08
-1.33697e-08
-4.41722e-08
-1.29536e-08
-3.89148e-08
-1.24592e-08
-3.38909e-08
-1.18886e-08
-2.91305e-08
-1.12444e-08
-2.46619e-08
-1.05303e-08
-2.05117e-08
-9.75057e-09
-1.67039e-08
-8.91064e-09
-1.32597e-08
-8.01707e-09
-1.01967e-08
-7.07779e-09
-7.52851e-09
-6.10248e-09
-5.26368e-09
-5.10305e-09
-3.40454e-09
-4.09432e-09
-1.94601e-09
-3.09497e-09
-8.73835e-10
-2.12883e-09
-1.62581e-10
-1.22663e-09
2.26765e-10
-4.2835e-10
3.497e-10
2.1394e-10
2.81216e-10
6.33346e-10
1.19911e-10
7.45166e-10
4.38152e-10
-2.83683e-11
-2.93641e-10
-2.57903e-10
-8.85253e-11
-7.91595e-10
6.49182e-10
-1.70204e-09
1.73326e-09
-3.03797e-09
3.03267e-09
-4.82798e-09
4.44991e-09
-7.08414e-09
5.9134e-09
-9.80542e-09
7.3717e-09
-1.29806e-08
8.78846e-09
-1.65909e-08
1.01385e-08
-2.06118e-08
1.1405e-08
-2.50153e-08
1.25773e-08
-2.97705e-08
1.3649e-08
-3.48452e-08
1.46173e-08
-4.02066e-08
1.54816e-08
-4.58218e-08
1.62431e-08
-5.16583e-08
1.69041e-08
-5.76841e-08
1.74679e-08
-6.38685e-08
1.7938e-08
-7.01815e-08
1.83185e-08
-7.65944e-08
1.86135e-08
-8.30798e-08
1.8827e-08
-8.96113e-08
1.8963e-08
-9.61638e-08
1.90253e-08
-1.02713e-07
1.90174e-08
-1.09236e-07
1.89426e-08
-1.15711e-07
1.88039e-08
-1.22117e-07
1.86041e-08
-1.28433e-07
1.83456e-08
-1.34639e-07
1.80305e-08
-1.40716e-07
1.76607e-08
-1.46647e-07
1.72378e-08
-1.52412e-07
1.67633e-08
-1.57996e-07
1.62384e-08
-1.63379e-07
1.56641e-08
-1.68546e-07
1.50413e-08
-1.7348e-07
1.4371e-08
-1.78165e-07
1.3654e-08
-1.82585e-07
1.2891e-08
-1.86725e-07
1.20828e-08
-1.9057e-07
1.12304e-08
-1.94105e-07
1.03348e-08
-1.97315e-07
9.39697e-09
-2.00187e-07
8.41832e-09
-2.02707e-07
7.40036e-09
-2.04864e-07
6.34485e-09
-2.06645e-07
5.25379e-09
-2.08039e-07
4.12953e-09
-2.09036e-07
2.9747e-09
-2.09627e-07
1.79229e-09
-2.09804e-07
5.85634e-10
-2.0956e-07
-6.41563e-10
-2.08891e-07
-1.88523e-09
-2.07793e-07
-3.14092e-09
-2.06263e-07
-4.40382e-09
-2.04302e-07
-5.66874e-09
-2.0191e-07
-6.93017e-09
-1.99092e-07
-8.18229e-09
-1.95853e-07
-9.41893e-09
-1.922e-07
-1.06337e-08
-1.88145e-07
-1.182e-08
-1.83698e-07
-1.2971e-08
-1.78875e-07
-1.40798e-08
-1.73692e-07
-1.51394e-08
-1.68169e-07
-1.61427e-08
-1.62326e-07
-1.70828e-08
-1.56189e-07
-1.79527e-08
-1.49783e-07
-1.87457e-08
-1.43136e-07
-1.94554e-08
-1.36278e-07
-2.00756e-08
-1.29241e-07
-2.06004e-08
-1.2206e-07
-2.10246e-08
-1.14769e-07
-2.13433e-08
-1.07406e-07
-2.15522e-08
-1.00008e-07
-2.16476e-08
-9.26147e-08
-2.16266e-08
-8.52654e-08
-2.1487e-08
-7.80002e-08
-2.12273e-08
-7.08594e-08
-2.08469e-08
-6.38829e-08
-2.03462e-08
-5.71104e-08
-1.97262e-08
-5.05804e-08
-1.89892e-08
-4.43306e-08
-1.81384e-08
-3.83968e-08
-1.71782e-08
-3.28129e-08
-1.61141e-08
-2.76105e-08
-1.4953e-08
-2.28178e-08
-1.37033e-08
-1.84598e-08
-1.23751e-08
-1.45571e-08
-1.09806e-08
-1.1125e-08
-9.53451e-09
-8.17324e-09
-8.05483e-09
-5.70411e-09
-6.56346e-09
-3.7116e-09
-5.08748e-09
-2.17972e-09
-3.6607e-09
-1.08075e-09
-2.32559e-09
-3.73231e-10
-1.13588e-09
3.6863e-13
-1.59684e-10
1.16378e-10
5.17346e-10
7.30951e-11
7.88448e-10
5.11244e-10
-1.10682e-10
-1.82956e-10
-5.45637e-10
3.46424e-10
-1.38418e-09
1.48773e-09
-2.68449e-09
3.03358e-09
-4.48597e-09
4.83415e-09
-6.81119e-09
6.77513e-09
-9.66822e-09
8.77043e-09
-1.30531e-08
1.07565e-08
-1.6952e-08
1.26874e-08
-2.13438e-08
1.45303e-08
-2.62013e-08
1.62626e-08
-3.14935e-08
1.78694e-08
-3.71861e-08
1.93416e-08
-4.32435e-08
2.06746e-08
-4.96288e-08
2.18669e-08
-5.6305e-08
2.29193e-08
-6.32352e-08
2.38344e-08
-7.03834e-08
2.4616e-08
-7.7714e-08
2.52687e-08
-8.51928e-08
2.57974e-08
-9.27867e-08
2.62074e-08
-1.00464e-07
2.65041e-08
-1.08193e-07
2.66926e-08
-1.15946e-07
2.67779e-08
-1.23694e-07
2.67649e-08
-1.31409e-07
2.6658e-08
-1.39066e-07
2.64611e-08
-1.4664e-07
2.61781e-08
-1.54107e-07
2.58122e-08
-1.61443e-07
2.53664e-08
-1.68625e-07
2.48434e-08
-1.75633e-07
2.42454e-08
-1.82444e-07
2.35744e-08
-1.89038e-07
2.28322e-08
-1.95394e-07
2.20203e-08
-2.01493e-07
2.11402e-08
-2.07315e-07
2.01931e-08
-2.12841e-07
1.91802e-08
-2.18053e-07
1.81027e-08
-2.22932e-07
1.69619e-08
-2.27461e-07
1.57591e-08
-2.31622e-07
1.44958e-08
-2.35399e-07
1.31736e-08
-2.38775e-07
1.17945e-08
-2.41735e-07
1.03607e-08
-2.44265e-07
8.87469e-09
-2.46351e-07
7.33944e-09
-2.47979e-07
5.75824e-09
-2.49139e-07
4.13487e-09
-2.49821e-07
2.47356e-09
-2.50014e-07
7.7902e-10
-2.49712e-07
-9.43546e-10
-2.48909e-07
-2.68841e-09
-2.47601e-07
-4.44933e-09
-2.45785e-07
-6.21959e-09
-2.43462e-07
-7.99195e-09
-2.40633e-07
-9.75872e-09
-2.37304e-07
-1.15118e-08
-2.3348e-07
-1.32426e-08
-2.29171e-07
-1.49423e-08
-2.2439e-07
-1.66017e-08
-2.19149e-07
-1.82113e-08
-2.13468e-07
-1.97616e-08
-2.07364e-07
-2.12428e-08
-2.00862e-07
-2.26453e-08
-1.93985e-07
-2.39593e-08
-1.86763e-07
-2.51753e-08
-1.79224e-07
-2.62842e-08
-1.71403e-07
-2.72768e-08
-1.63333e-07
-2.81449e-08
-1.55054e-07
-2.88802e-08
-1.46603e-07
-2.94756e-08
-1.38022e-07
-2.99243e-08
-1.29354e-07
-3.02205e-08
-1.20642e-07
-3.03591e-08
-1.11932e-07
-3.03363e-08
-1.03271e-07
-3.01489e-08
-9.47028e-08
-2.97951e-08
-8.62756e-08
-2.92741e-08
-7.80351e-08
-2.85866e-08
-7.0027e-08
-2.77343e-08
-6.22956e-08
-2.67206e-08
-5.48841e-08
-2.55499e-08
-4.78336e-08
-2.42287e-08
-4.11829e-08
-2.27649e-08
-3.49676e-08
-2.11683e-08
-2.922e-08
-1.94509e-08
-2.39682e-08
-1.76269e-08
-1.92353e-08
-1.57135e-08
-1.50385e-08
-1.37312e-08
-1.13887e-08
-1.17047e-08
-8.28862e-09
-9.66352e-09
-5.73232e-09
-7.64378e-09
-3.70347e-09
-5.68955e-09
-2.174e-09
-3.85504e-09
-1.1026e-09
-2.2073e-09
-4.3287e-10
-8.29426e-10
-9.15841e-11
1.7606e-10
1.38251e-11
6.83038e-10
5.25068e-10
-1.95751e-10
1.27942e-11
-8.47488e-10
9.98162e-10
-2.00898e-09
2.64922e-09
-3.72092e-09
4.74551e-09
-6.01039e-09
7.12362e-09
-8.89135e-09
9.65609e-09
-1.23657e-08
1.22448e-08
-1.6425e-08
1.48158e-08
-2.10519e-08
1.73143e-08
-2.62221e-08
1.97004e-08
-3.19055e-08
2.1946e-08
-3.8068e-08
2.40319e-08
-4.46726e-08
2.59463e-08
-5.16803e-08
2.76823e-08
-5.90508e-08
2.92374e-08
-6.67437e-08
3.06122e-08
-7.47184e-08
3.18091e-08
-8.29349e-08
3.28325e-08
-9.13541e-08
3.36878e-08
-9.99377e-08
3.4381e-08
-1.08649e-07
3.49185e-08
-1.17452e-07
3.53068e-08
-1.26311e-07
3.55525e-08
-1.35195e-07
3.56619e-08
-1.44071e-07
3.56409e-08
-1.52909e-07
3.54952e-08
-1.61677e-07
3.523e-08
-1.70349e-07
3.48502e-08
-1.78897e-07
3.43599e-08
-1.87294e-07
3.37631e-08
-1.95514e-07
3.30631e-08
-2.03531e-07
3.22632e-08
-2.11323e-07
3.13658e-08
-2.18864e-07
3.03734e-08
-2.26132e-07
2.92882e-08
-2.33103e-07
2.81119e-08
-2.39757e-07
2.68465e-08
-2.4607e-07
2.54936e-08
-2.52022e-07
2.40548e-08
-2.57592e-07
2.2532e-08
-2.6276e-07
2.09271e-08
-2.67507e-07
1.9242e-08
-2.71812e-07
1.74792e-08
-2.75659e-07
1.56412e-08
-2.79029e-07
1.37311e-08
-2.81907e-07
1.17524e-08
-2.84276e-07
9.709e-09
-2.86124e-07
7.6054e-09
-2.87435e-07
5.44664e-09
-2.882e-07
3.2384e-09
-2.88408e-07
9.86945e-10
-2.88051e-07
-1.30077e-09
-2.87122e-07
-3.61716e-09
-2.85618e-07
-5.95396e-09
-2.83535e-07
-8.30226e-09
-2.80874e-07
-1.06525e-08
-2.77638e-07
-1.29946e-08
-2.73832e-07
-1.53178e-08
-2.69464e-07
-1.76108e-08
-2.64544e-07
-1.98621e-08
-2.59086e-07
-2.20595e-08
-2.53107e-07
-2.41907e-08
-2.46626e-07
-2.6243e-08
-2.39665e-07
-2.82037e-08
-2.3225e-07
-3.00602e-08
-2.24409e-07
-3.17997e-08
-2.16175e-07
-3.34098e-08
-2.07581e-07
-3.48784e-08
-1.98664e-07
-3.61937e-08
-1.89464e-07
-3.73448e-08
-1.80023e-07
-3.83212e-08
-1.70385e-07
-3.91132e-08
-1.60597e-07
-3.97123e-08
-1.50707e-07
-4.01108e-08
-1.40764e-07
-4.03023e-08
-1.30819e-07
-4.02815e-08
-1.20923e-07
-4.00447e-08
-1.11128e-07
-3.95896e-08
-1.01487e-07
-3.89153e-08
-9.20509e-08
-3.80226e-08
-8.28709e-08
-3.69143e-08
-7.39967e-08
-3.55948e-08
-6.54763e-08
-3.40704e-08
-5.73554e-08
-3.23496e-08
-4.96771e-08
-3.04432e-08
-4.24811e-08
-2.83644e-08
-3.58029e-08
-2.6129e-08
-2.96736e-08
-2.37562e-08
-2.41187e-08
-2.12684e-08
-1.91574e-08
-1.86925e-08
-1.4802e-08
-1.60601e-08
-1.10564e-08
-1.34091e-08
-7.9155e-09
-1.07847e-08
-5.36391e-09
-8.24115e-09
-3.3749e-09
-5.84406e-09
-1.90929e-09
-3.67291e-09
-9.14324e-10
-1.82439e-09
-3.22661e-10
-4.1561e-10
-5.12733e-11
4.11648e-10
4.73795e-10
-2.80337e-10
2.93132e-10
-1.15223e-09
1.87005e-09
-2.64418e-09
4.14117e-09
-4.77819e-09
6.87952e-09
-7.56735e-09
9.91277e-09
-1.10152e-08
1.31039e-08
-1.51159e-08
1.63455e-08
-1.98551e-08
1.9555e-08
-2.52109e-08
2.26701e-08
-3.1155e-08
2.56445e-08
-3.76541e-08
2.84451e-08
-4.46711e-08
3.10489e-08
-5.21659e-08
3.3441e-08
-6.00964e-08
3.56128e-08
-6.84194e-08
3.75605e-08
-7.70913e-08
3.9284e-08
-8.60682e-08
4.0786e-08
-9.5307e-08
4.20713e-08
-1.04765e-07
4.31458e-08
-1.14401e-07
4.40167e-08
-1.24174e-07
4.46914e-08
-1.34044e-07
4.51778e-08
-1.43976e-07
4.54836e-08
-1.5393e-07
4.56165e-08
-1.63873e-07
4.55838e-08
-1.7377e-07
4.53923e-08
-1.83589e-07
4.50485e-08
-1.93297e-07
4.45583e-08
-2.02864e-07
4.3927e-08
-2.1226e-07
4.31594e-08
-2.21457e-07
4.22599e-08
-2.30426e-07
4.12324e-08
-2.39141e-07
4.00802e-08
-2.47574e-07
3.88064e-08
-2.55699e-07
3.74138e-08
-2.63492e-07
3.59049e-08
-2.70928e-07
3.42819e-08
-2.77981e-07
3.25473e-08
-2.8463e-07
3.07032e-08
-2.9085e-07
2.8752e-08
-2.96619e-07
2.66962e-08
-3.01915e-07
2.45386e-08
-3.06718e-07
2.22822e-08
-3.11008e-07
1.99305e-08
-3.14764e-07
1.74876e-08
-3.1797e-07
1.49578e-08
-3.20607e-07
1.23463e-08
-3.22661e-07
9.65901e-09
-3.24116e-07
6.90228e-09
-3.24961e-07
4.08342e-09
-3.25185e-07
1.21048e-09
-3.24778e-07
-1.7077e-09
-3.23734e-07
-4.66141e-09
-3.22047e-07
-7.64017e-09
-3.19717e-07
-1.06326e-08
-3.16743e-07
-1.36267e-08
-3.13128e-07
-1.66096e-08
-3.08878e-07
-1.95677e-08
-3.04002e-07
-2.24868e-08
-2.98512e-07
-2.53522e-08
-2.92423e-07
-2.81486e-08
-2.85753e-07
-3.08603e-08
-2.78524e-07
-3.34717e-08
-2.70762e-07
-3.59665e-08
-2.62493e-07
-3.83287e-08
-2.5375e-07
-4.05425e-08
-2.44568e-07
-4.25921e-08
-2.34984e-07
-4.44623e-08
-2.2504e-07
-4.61384e-08
-2.14778e-07
-4.76065e-08
-2.04246e-07
-4.88535e-08
-1.93491e-07
-4.98674e-08
-1.82566e-07
-5.06373e-08
-1.71524e-07
-5.11537e-08
-1.60417e-07
-5.14085e-08
-1.49304e-07
-5.13954e-08
-1.38239e-07
-5.11096e-08
-1.2728e-07
-5.05484e-08
-1.16484e-07
-4.97109e-08
-1.05909e-07
-4.85983e-08
-9.56088e-08
-4.72142e-08
-8.56393e-08
-4.55644e-08
-7.60524e-08
-4.36572e-08
-6.68985e-08
-4.15036e-08
-5.82242e-08
-3.91174e-08
-5.00731e-08
-3.65155e-08
-4.24838e-08
-3.37183e-08
-3.54903e-08
-3.07497e-08
-2.91206e-08
-2.76381e-08
-2.3396e-08
-2.4417e-08
-1.83307e-08
-2.11255e-08
-1.39302e-08
-1.78096e-08
-1.01913e-08
-1.45236e-08
-7.10057e-09
-1.13319e-08
-4.63389e-09
-8.31074e-09
-2.75577e-09
-5.55102e-09
-1.41883e-09
-3.16134e-09
-5.63487e-10
-1.27096e-09
-1.18137e-10
-3.3702e-11
3.55658e-10
-3.62907e-10
6.56039e-10
-1.45328e-09
2.96042e-09
-3.27604e-09
5.96393e-09
-5.83446e-09
9.43793e-09
-9.12687e-09
1.32052e-08
-1.31453e-08
1.71224e-08
-1.78751e-08
2.10753e-08
-2.32948e-08
2.49747e-08
-2.9377e-08
2.87523e-08
-3.60889e-08
3.23565e-08
-4.33935e-08
3.57498e-08
-5.12502e-08
3.89056e-08
-5.96158e-08
4.18066e-08
-6.84453e-08
4.44423e-08
-7.76925e-08
4.68077e-08
-8.73109e-08
4.89024e-08
-9.72538e-08
5.07289e-08
-1.07475e-07
5.22924e-08
-1.17929e-07
5.35997e-08
-1.28571e-07
5.46587e-08
-1.39358e-07
5.54781e-08
-1.50247e-07
5.60669e-08
-1.61198e-07
5.64343e-08
-1.7217e-07
5.65891e-08
-1.83126e-07
5.654e-08
-1.94029e-07
5.62951e-08
-2.04843e-07
5.58622e-08
-2.15533e-07
5.52482e-08
-2.26065e-07
5.44595e-08
-2.36408e-07
5.35022e-08
-2.46529e-07
5.23814e-08
-2.56399e-07
5.11018e-08
-2.65986e-07
4.96677e-08
-2.75263e-07
4.80828e-08
-2.84199e-07
4.63507e-08
-2.92769e-07
4.44744e-08
-3.00944e-07
4.2457e-08
-3.08698e-07
4.03013e-08
-3.16005e-07
3.80104e-08
-3.2284e-07
3.55871e-08
-3.29179e-07
3.30347e-08
-3.34997e-07
3.03567e-08
-3.40272e-07
2.75571e-08
-3.44982e-07
2.46403e-08
-3.49105e-07
2.16112e-08
-3.52623e-07
1.84756e-08
-3.55517e-07
1.52399e-08
-3.57769e-07
1.19113e-08
-3.59365e-07
8.49779e-09
-3.6029e-07
5.00852e-09
-3.60533e-07
1.45342e-09
-3.60084e-07
-2.15656e-09
-3.58936e-07
-5.80946e-09
-3.57084e-07
-9.49232e-09
-3.54525e-07
-1.31912e-08
-3.5126e-07
-1.68913e-08
-3.47293e-07
-2.05767e-08
-3.4263e-07
-2.42308e-08
-3.37281e-07
-2.78362e-08
-3.31258e-07
-3.13748e-08
-3.24579e-07
-3.48279e-08
-3.17263e-07
-3.81764e-08
-3.09334e-07
-4.14009e-08
-3.00818e-07
-4.44817e-08
-2.91748e-07
-4.73993e-08
-2.82156e-07
-5.0134e-08
-2.72081e-07
-5.26669e-08
-2.61564e-07
-5.49792e-08
-2.5065e-07
-5.7053e-08
-2.39385e-07
-5.88714e-08
-2.2782e-07
-6.04183e-08
-2.16008e-07
-6.16791e-08
-2.04005e-07
-6.26406e-08
-1.91868e-07
-6.32913e-08
-1.79655e-07
-6.36212e-08
-1.67427e-07
-6.36229e-08
-1.55246e-07
-6.32905e-08
-1.43174e-07
-6.26208e-08
-1.31272e-07
-6.16129e-08
-1.19602e-07
-6.02687e-08
-1.08223e-07
-5.85925e-08
-9.71959e-08
-5.65917e-08
-8.65762e-08
-5.42768e-08
-7.64183e-08
-5.16615e-08
-6.67729e-08
-4.87628e-08
-5.76866e-08
-4.56018e-08
-4.92016e-08
-4.22032e-08
-4.13546e-08
-3.85967e-08
-3.41763e-08
-3.48165e-08
-2.76904e-08
-3.09029e-08
-2.19133e-08
-2.69026e-08
-1.6853e-08
-2.28699e-08
-1.25085e-08
-1.8868e-08
-8.86956e-09
-1.49709e-08
-5.91556e-09
-1.12647e-08
-3.61582e-09
-7.85076e-09
-1.92938e-09
-4.84778e-09
-8.05432e-10
-2.39491e-09
-1.84356e-10
-6.54779e-10
1.71302e-10
-4.42586e-10
1.09863e-09
-1.74684e-09
4.26469e-09
-3.89617e-09
8.11325e-09
-6.87572e-09
1.24175e-08
-1.0669e-08
1.69985e-08
-1.52561e-08
2.17095e-08
-2.06125e-08
2.64317e-08
-2.67092e-08
3.10714e-08
-3.35124e-08
3.55555e-08
-4.09844e-08
3.98284e-08
-4.90836e-08
4.3849e-08
-5.77658e-08
4.75878e-08
-6.69845e-08
5.10253e-08
-7.66916e-08
5.41494e-08
-8.68383e-08
5.69543e-08
-9.73749e-08
5.94391e-08
-1.08252e-07
6.16063e-08
-1.19421e-07
6.34616e-08
-1.30834e-07
6.50123e-08
-1.42443e-07
6.62676e-08
-1.54202e-07
6.7237e-08
-1.66066e-07
6.79309e-08
-1.77991e-07
6.83597e-08
-1.89936e-07
6.85337e-08
-2.01859e-07
6.84628e-08
-2.1372e-07
6.81564e-08
-2.25481e-07
6.76235e-08
-2.37106e-07
6.68724e-08
-2.48557e-07
6.59106e-08
-2.59799e-07
6.4745e-08
-2.708e-07
6.33819e-08
-2.81525e-07
6.18269e-08
-2.91942e-07
6.0085e-08
-3.0202e-07
5.8161e-08
-3.11729e-07
5.60589e-08
-3.21037e-07
5.37826e-08
-3.29916e-07
5.13358e-08
-3.38336e-07
4.87222e-08
-3.46271e-07
4.59452e-08
-3.53693e-07
4.30087e-08
-3.60575e-07
3.99167e-08
-3.66892e-07
3.66735e-08
-3.72619e-07
3.3284e-08
-3.77732e-07
2.97536e-08
-3.82209e-07
2.60884e-08
-3.86029e-07
2.22954e-08
-3.89171e-07
1.83825e-08
-3.91618e-07
1.43583e-08
-3.93353e-07
1.02328e-08
-3.94362e-07
6.01674e-09
-3.9463e-07
1.72226e-09
-3.94149e-07
-2.63743e-09
-3.92911e-07
-7.04795e-09
-3.9091e-07
-1.14937e-08
-3.88143e-07
-1.5958e-08
-3.84611e-07
-2.04228e-08
-3.80319e-07
-2.48694e-08
-3.75272e-07
-2.92777e-08
-3.69481e-07
-3.36268e-08
-3.62961e-07
-3.78951e-08
-3.55728e-07
-4.20602e-08
-3.47806e-07
-4.60992e-08
-3.39218e-07
-4.9989e-08
-3.29993e-07
-5.37059e-08
-3.20166e-07
-5.72266e-08
-3.09772e-07
-6.05278e-08
-2.98853e-07
-6.35865e-08
-2.87451e-07
-6.63806e-08
-2.75616e-07
-6.88886e-08
-2.63397e-07
-7.10903e-08
-2.50849e-07
-7.29665e-08
-2.38028e-07
-7.44998e-08
-2.24994e-07
-7.56744e-08
-2.11809e-07
-7.64766e-08
-1.98535e-07
-7.68948e-08
-1.85238e-07
-7.69199e-08
-1.71983e-07
-7.65452e-08
-1.58837e-07
-7.57668e-08
-1.45866e-07
-7.4584e-08
-1.33136e-07
-7.2999e-08
-1.20711e-07
-7.10174e-08
-1.08655e-07
-6.86481e-08
-9.70276e-08
-6.59039e-08
-8.58878e-08
-6.28013e-08
-7.52896e-08
-5.9361e-08
-6.52832e-08
-5.56081e-08
-5.5914e-08
-5.15725e-08
-4.72217e-08
-4.7289e-08
-3.92398e-08
-4.27984e-08
-3.19949e-08
-3.81478e-08
-2.5506e-08
-3.33915e-08
-1.97839e-08
-2.85919e-08
-1.48309e-08
-2.3821e-08
-1.06402e-08
-1.91617e-08
-7.19551e-09
-1.47094e-08
-4.47174e-09
-1.05745e-08
-2.43488e-09
-6.88465e-09
-1.04314e-09
-3.78665e-09
-2.48545e-10
-1.44937e-09
-7.7244e-11
-5.19022e-10
1.61764e-09
-2.03095e-09
5.77662e-09
-4.49968e-09
1.0582e-08
-7.89335e-09
1.58112e-08
-1.2181e-08
2.12861e-08
-1.73305e-08
2.68589e-08
-2.33073e-08
3.24086e-08
-3.00742e-08
3.78383e-08
-3.75905e-08
4.30719e-08
-4.58129e-08
4.80508e-08
-5.46951e-08
5.27312e-08
-6.41888e-08
5.70816e-08
-7.4244e-08
6.10805e-08
-8.48095e-08
6.47149e-08
-9.58333e-08
6.79782e-08
-1.07263e-07
7.08691e-08
-1.19048e-07
7.33906e-08
-1.31135e-07
7.55486e-08
-1.43474e-07
7.73514e-08
-1.56015e-07
7.88089e-08
-1.6871e-07
7.99319e-08
-1.81511e-07
8.07321e-08
-1.94373e-07
8.12211e-08
-2.07249e-07
8.14105e-08
-2.20098e-07
8.13116e-08
-2.32877e-07
8.09352e-08
-2.45545e-07
8.02916e-08
-2.58063e-07
7.93901e-08
-2.70392e-07
7.82395e-08
-2.82495e-07
7.68479e-08
-2.94335e-07
7.52224e-08
-3.05878e-07
7.33696e-08
-3.17089e-07
7.12956e-08
-3.27933e-07
6.90057e-08
-3.38379e-07
6.65048e-08
-3.48394e-07
6.37977e-08
-3.57947e-07
6.08887e-08
-3.67007e-07
5.77822e-08
-3.75544e-07
5.44825e-08
-3.8353e-07
5.09941e-08
-3.90935e-07
4.7322e-08
-3.97733e-07
4.34713e-08
-4.03897e-07
3.94479e-08
-4.09402e-07
3.52583e-08
-4.14223e-07
3.091e-08
-4.18339e-07
2.64111e-08
-4.21727e-07
2.17711e-08
-4.24369e-07
1.70003e-08
-4.26247e-07
1.21103e-08
-4.27344e-07
7.11424e-09
-4.27648e-07
2.02622e-09
-4.27148e-07
-3.13811e-09
-4.25834e-07
-8.36176e-09
-4.23701e-07
-1.36263e-08
-4.20747e-07
-1.89121e-08
-4.16972e-07
-2.41981e-08
-4.12379e-07
-2.94619e-08
-4.06977e-07
-3.46801e-08
-4.00776e-07
-3.98281e-08
-3.9379e-07
-4.48805e-08
-3.86039e-07
-4.9811e-08
-3.77546e-07
-5.45927e-08
-3.68336e-07
-5.91984e-08
-3.58442e-07
-6.36003e-08
-3.47897e-07
-6.77711e-08
-3.36742e-07
-7.16833e-08
-3.25018e-07
-7.53101e-08
-3.12773e-07
-7.86255e-08
-3.00058e-07
-8.16041e-08
-2.86926e-07
-8.42223e-08
-2.73435e-07
-8.64577e-08
-2.59645e-07
-8.82897e-08
-2.45619e-07
-8.97e-08
-2.31423e-07
-9.06724e-08
-2.17125e-07
-9.11933e-08
-2.02793e-07
-9.12522e-08
-1.88497e-07
-9.08413e-08
-1.74307e-07
-8.99562e-08
-1.60295e-07
-8.8596e-08
-1.46531e-07
-8.67636e-08
-1.33082e-07
-8.44657e-08
-1.20018e-07
-8.17129e-08
-1.07401e-07
-7.85203e-08
-9.52948e-08
-7.49076e-08
-8.37567e-08
-7.08992e-08
-7.28404e-08
-6.65244e-08
-6.25948e-08
-6.18181e-08
-5.30628e-08
-5.6821e-08
-4.4281e-08
-5.15802e-08
-3.62792e-08
-4.61497e-08
-2.90794e-08
-4.05913e-08
-2.26958e-08
-3.49755e-08
-1.71343e-08
-2.93826e-08
-1.23921e-08
-2.39039e-08
-8.45789e-09
-1.86436e-08
-5.31231e-09
-1.37201e-08
-2.92851e-09
-9.26845e-09
-1.27347e-09
-5.44169e-09
-3.09979e-10
-2.41287e-09
-3.87221e-10
-5.92144e-10
2.20978e-09
-2.30471e-09
7.48919e-09
-5.08404e-09
1.33613e-08
-8.88247e-09
1.96096e-08
-1.36551e-08
2.60587e-08
-1.93578e-08
3.25616e-08
-2.5946e-08
3.89968e-08
-3.33737e-08
4.5266e-08
-4.15932e-08
5.12914e-08
-5.0555e-08
5.70126e-08
-6.02079e-08
6.23841e-08
-7.04992e-08
6.73728e-08
-8.1375e-08
7.19564e-08
-9.27809e-08
7.61208e-08
-1.04662e-07
7.98592e-08
-1.16963e-07
8.31704e-08
-1.2963e-07
8.60576e-08
-1.42609e-07
8.85274e-08
-1.55846e-07
9.05888e-08
-1.6929e-07
9.22529e-08
-1.8289e-07
9.35317e-08
-1.96596e-07
9.44379e-08
-2.10359e-07
9.49847e-08
-2.24134e-07
9.51851e-08
-2.37874e-07
9.50516e-08
-2.51535e-07
9.45964e-08
-2.65075e-07
9.38311e-08
-2.78451e-07
9.27662e-08
-2.91623e-07
9.14118e-08
-3.04552e-07
8.97769e-08
-3.172e-07
8.78698e-08
-3.29528e-07
8.5698e-08
-3.41501e-07
8.32685e-08
-3.53083e-07
8.05875e-08
-3.64239e-07
7.76608e-08
-3.74935e-07
7.44938e-08
-3.85138e-07
7.10916e-08
-3.94815e-07
6.74595e-08
-4.03935e-07
6.36024e-08
-4.12467e-07
5.95259e-08
-4.2038e-07
5.52356e-08
-4.27647e-07
5.07377e-08
-4.34238e-07
4.60391e-08
-4.40127e-07
4.11475e-08
-4.45289e-07
3.60716e-08
-4.49699e-07
3.0821e-08
-4.53334e-07
2.54067e-08
-4.56175e-07
1.98409e-08
-4.58202e-07
1.4137e-08
-4.59398e-07
8.31029e-09
-4.59749e-07
2.37719e-09
-4.59243e-07
-3.64412e-09
-4.57871e-07
-9.7339e-09
-4.55626e-07
-1.58708e-08
-4.52506e-07
-2.20321e-08
-4.48511e-07
-2.81932e-08
-4.43645e-07
-3.43284e-08
-4.37914e-07
-4.04104e-08
-4.31331e-07