/*--------------------------------*- C++ -*----------------------------------*\
| =========                 |                                                 |
| \\      /  F ield         | OpenFOAM: The Open Source CFD Toolbox           |
|  \\    /   O peration     | Version:  2512                                  |
|   \\  /    A nd           | Website:  www.openfoam.com                      |
|    \\/     M anipulation  |                                                 |
\*---------------------------------------------------------------------------*/
FoamFile
{
    version     2.0;
    format      ascii;
    arch        "LSB;label=32;scalar=64";
    class       surfaceScalarField;
    location    "0.38";
    object      phi;
}
// * * * * * * * * * * * * * * * * * * * * * * * * * * * * * * * * * * * * * //

dimensions      [0 3 -1 0 0 0 0];

oriented        oriented;

internalField   nonuniform List<scalar> 
19800
(
7.16216e-11
-7.16494e-11
2.16846e-10
-1.45225e-10
3.54129e-10
-1.37285e-10
4.34628e-10
-8.05061e-11
4.33295e-10
1.32843e-12
3.39122e-10
9.41784e-11
1.48661e-10
1.90462e-10
-1.36758e-10
2.85421e-10
-5.13139e-10
3.76389e-10
-9.7497e-10
4.61834e-10
-1.5159e-09
5.40942e-10
-2.12922e-09
6.13326e-10
-2.80809e-09
6.7887e-10
-3.54576e-09
7.37657e-10
-4.33564e-09
7.89873e-10
-5.17141e-09
8.35771e-10
-6.04705e-09
8.75652e-10
-6.95688e-09
9.09831e-10
-7.89551e-09
9.38633e-10
-8.85788e-09
9.62371e-10
-9.83923e-09
9.81343e-10
-1.08351e-08
9.95841e-10
-1.18412e-08
1.00613e-09
-1.28537e-08
1.01244e-09
-1.38686e-08
1.01498e-09
-1.48826e-08
1.01392e-09
-1.5892e-08
1.00943e-09
-1.68936e-08
1.00162e-09
-1.78842e-08
9.90604e-10
-1.88607e-08
9.76448e-10
-1.98199e-08
9.59229e-10
-2.07589e-08
9.38977e-10
-2.16746e-08
9.15714e-10
-2.25641e-08
8.89465e-10
-2.34243e-08
8.60239e-10
-2.42523e-08
8.28026e-10
-2.50451e-08
7.92815e-10
-2.57998e-08
7.54613e-10
-2.65132e-08
7.13428e-10
-2.71824e-08
6.69261e-10
-2.78046e-08
6.22127e-10
-2.83766e-08
5.72056e-10
-2.88957e-08
5.191e-10
-2.9359e-08
4.63322e-10
-2.97638e-08
4.04798e-10
-3.01075e-08
3.43644e-10
-3.03875e-08
2.79995e-10
-3.06015e-08
2.14014e-10
-3.07474e-08
1.45893e-10
-3.08232e-08
7.58409e-11
-3.08274e-08
4.10416e-12
-3.07583e-08
-6.90317e-11
-3.06151e-08
-1.43257e-10
-3.03968e-08
-2.18238e-10
-3.01032e-08
-2.93606e-10
-2.97342e-08
-3.68976e-10
-2.92903e-08
-4.43932e-10
-2.87723e-08
-5.18029e-10
-2.81815e-08
-5.9081e-10
-2.75197e-08
-6.61807e-10
-2.67891e-08
-7.30535e-10
-2.59926e-08
-7.96509e-10
-2.51334e-08
-8.5924e-10
-2.42151e-08
-9.18236e-10
-2.32421e-08
-9.73007e-10
-2.2219e-08
-1.02309e-09
-2.1151e-08
-1.06804e-09
-2.00436e-08
-1.10742e-09
-1.89027e-08
-1.14086e-09
-1.77347e-08
-1.16798e-09
-1.65463e-08
-1.18848e-09
-1.53442e-08
-1.20207e-09
-1.41357e-08
-1.20852e-09
-1.2928e-08
-1.20767e-09
-1.17286e-08
-1.19939e-09
-1.0545e-08
-1.18363e-09
-9.38461e-09
-1.16038e-09
-8.25489e-09
-1.12973e-09
-7.16311e-09
-1.09178e-09
-6.11638e-09
-1.04673e-09
-5.12154e-09
-9.94838e-10
-4.18512e-09
-9.36416e-10
-3.31328e-09
-8.71846e-10
-2.51171e-09
-8.01577e-10
-1.78557e-09
-7.26135e-10
-1.13946e-09
-6.46114e-10
-5.7728e-10
-5.62187e-10
-1.02159e-10
-4.75123e-10
2.83657e-10
-3.85815e-10
5.78958e-10
-2.95304e-10
7.83791e-10
-2.04838e-10
8.99755e-10
-1.15964e-10
9.30429e-10
-3.06701e-11
8.82033e-10
4.83962e-11
7.64468e-10
1.17562e-10
5.92886e-10
1.71582e-10
3.89965e-10
2.02926e-10
1.89502e-10
2.00465e-10
4.13304e-11
1.48174e-10
4.13327e-11
1.44427e-10
-2.16075e-10
3.62339e-10
-3.63146e-10
5.22142e-10
-2.97087e-10
5.36817e-10
-9.51753e-11
3.52068e-10
1.86081e-10
-6.22798e-11
5.0853e-10
-7.19019e-10
8.47207e-10
-1.61962e-09
1.18601e-09
-2.75789e-09
1.51466e-09
-4.12279e-09
1.82672e-09
-5.70019e-09
2.11833e-09
-7.47419e-09
2.38732e-09
-9.42795e-09
2.63264e-09
-1.15443e-08
2.85405e-09
-1.38062e-08
3.0518e-09
-1.6197e-08
3.22652e-09
-1.87004e-08
3.37905e-09
-2.13009e-08
3.51035e-09
-2.39837e-08
3.62144e-09
-2.67347e-08
3.71335e-09
-2.95405e-08
3.78712e-09
-3.23884e-08
3.84371e-09
-3.52663e-08
3.88404e-09
-3.81627e-08
3.90892e-09
-4.10668e-08
3.9191e-09
-4.39682e-08
3.91524e-09
-4.68566e-08
3.89787e-09
-4.97224e-08
3.86749e-09
-5.25563e-08
3.82448e-09
-5.5349e-08
3.76915e-09
-5.80915e-08
3.70174e-09
-6.0775e-08
3.62244e-09
-6.33907e-08
3.53137e-09
-6.59298e-08
3.4286e-09
-6.83838e-08
3.3142e-09
-7.0744e-08
3.18819e-09
-7.30017e-08
3.05061e-09
-7.51486e-08
2.90148e-09
-7.7176e-08
2.74084e-09
-7.90755e-08
2.56876e-09
-8.08388e-08
2.38536e-09
-8.24575e-08
2.19079e-09
-8.39237e-08
1.98526e-09
-8.52294e-08
1.76908e-09
-8.63672e-08
1.54258e-09
-8.73298e-08
1.30623e-09
-8.81103e-08
1.06057e-09
-8.87026e-08
8.06232e-10
-8.91007e-08
5.4397e-10
-8.92995e-08
2.74641e-10
-8.92946e-08
-7.96026e-13
-8.90823e-08
-2.81278e-10
-8.866e-08
-5.65601e-10
-8.80257e-08
-8.52493e-10
-8.71787e-08
-1.14057e-09
-8.61194e-08
-1.42833e-09
-8.48491e-08
-1.71422e-09
-8.33706e-08
-1.99658e-09
-8.16877e-08
-2.27369e-09
-7.98057e-08
-2.54379e-09
-7.77311e-08
-2.80508e-09
-7.54719e-08
-3.05572e-09
-7.30373e-08
-3.29388e-09
-7.04378e-08
-3.51775e-09
-6.76853e-08
-3.72553e-09
-6.47929e-08
-3.91548e-09
-6.1775e-08
-4.08595e-09
-5.8647e-08
-4.23537e-09
-5.54256e-08
-4.36228e-09
-5.21282e-08
-4.46537e-09
-4.87732e-08
-4.54344e-09
-4.53798e-08
-4.59551e-09
-4.19676e-08
-4.62073e-09
-3.85568e-08
-4.61848e-09
-3.51678e-08
-4.58834e-09
-3.18214e-08
-4.53012e-09
-2.85379e-08
-4.44384e-09
-2.53379e-08
-4.32976e-09
-2.22413e-08
-4.18839e-09
-1.92675e-08
-4.02048e-09
-1.64353e-08
-3.82701e-09
-1.37625e-08
-3.60923e-09
-1.12657e-08
-3.36864e-09
-8.96031e-09
-3.107e-09
-6.8601e-09
-2.82636e-09
-4.97718e-09
-2.52904e-09
-3.32165e-09
-2.21772e-09
-1.9013e-09
-1.89547e-09
-7.21282e-10
-1.56583e-09
2.16339e-10
-1.23293e-09
9.1318e-10
-9.01671e-10
1.37527e-09
-5.78048e-10
1.61413e-09
-2.69524e-10
1.64815e-09
1.43701e-11
1.5045e-09
2.61221e-10
1.22158e-09
4.54515e-10
8.51951e-10
5.72548e-10
4.65115e-10
5.87282e-10
1.47633e-10
4.65641e-10
1.88965e-10
1.37744e-10
-3.5382e-10
2.97856e-10
-5.23247e-10
3.27946e-10
-3.2718e-10
1.26056e-10
1.06713e-10
-3.7538e-10
6.87529e-10
-1.21675e-09
1.3499e-09
-2.41755e-09
2.04802e-09
-3.98214e-09
2.75061e-09
-5.90407e-09
3.43659e-09
-8.1694e-09
4.09205e-09
-1.07591e-08
4.70808e-09
-1.36511e-08
5.27927e-09
-1.68211e-08
5.80266e-09
-2.02441e-08
6.27704e-09
-2.38947e-08
6.70239e-09
-2.77477e-08
7.07952e-09
-3.17784e-08
7.40979e-09
-3.5963e-08
7.69491e-09
-4.02784e-08
7.9368e-09
-4.47024e-08
8.13743e-09
-4.92141e-08
8.29879e-09
-5.37932e-08
8.42281e-09
-5.84205e-08
8.51132e-09
-6.30776e-08
8.56599e-09
-6.77468e-08
8.58833e-09
-7.24113e-08
8.5797e-09
-7.70547e-08
8.54128e-09
-8.16612e-08
8.47406e-09
-8.62156e-08
8.37886e-09
-9.07028e-08
8.25637e-09
-9.51082e-08
8.10713e-09
-9.94173e-08
7.93156e-09
-1.03616e-07
7.72996e-09
-1.0769e-07
7.50255e-09
-1.11625e-07
7.24949e-09
-1.15408e-07
6.97091e-09
-1.19024e-07
6.66693e-09
-1.2246e-07
6.33766e-09
-1.25703e-07
5.98327e-09
-1.28738e-07
5.60397e-09
-1.31553e-07
5.20005e-09
-1.34134e-07
4.77192e-09
-1.36469e-07
4.32011e-09
-1.38545e-07
3.84532e-09
-1.40351e-07
3.34837e-09
-1.41875e-07
2.8303e-09
-1.43107e-07
2.29234e-09
-1.44036e-07
1.73592e-09
-1.44655e-07
1.16269e-09
-1.44955e-07
5.74549e-10
-1.44929e-07
-2.63928e-11
-1.44573e-07
-6.37799e-10
-1.43881e-07
-1.25709e-09
-1.42852e-07
-1.88146e-09
-1.41485e-07
-2.50792e-09
-1.3978e-07
-3.13327e-09
-1.3774e-07
-3.7541e-09
-1.3537e-07
-4.36688e-09
-1.32676e-07
-4.96793e-09
-1.29666e-07
-5.55345e-09
-1.26351e-07
-6.11959e-09
-1.22745e-07
-6.66243e-09
-1.18861e-07
-7.17808e-09
-1.14716e-07
-7.66264e-09
-1.10329e-07
-8.11232e-09
-1.05721e-07
-8.52343e-09
-1.00914e-07
-8.89243e-09
-9.59338e-08
-9.21599e-09
-9.0805e-08
-9.49104e-09
-8.55556e-08
-9.71477e-09
-8.02144e-08
-9.88469e-09
-7.48112e-08
-9.99867e-09
-6.9377e-08
-1.0055e-08
-6.39431e-08
-1.00523e-08
-5.85417e-08
-9.98981e-09
-5.32047e-08
-9.86706e-09
-4.79644e-08
-9.68416e-09
-4.28524e-08
-9.44173e-09
-3.78999e-08
-9.14089e-09
-3.31371e-08
-8.78327e-09
-2.85931e-08
-8.37108e-09
-2.42953e-08
-7.90704e-09
-2.02694e-08
-7.39448e-09
-1.65392e-08
-6.83726e-09
-1.31256e-08
-6.23989e-09
-1.00471e-08
-5.60754e-09
-7.31872e-09
-4.94613e-09
-4.95179e-09
-4.26241e-09
-2.95346e-09
-3.56417e-09
-1.32593e-09
-2.86045e-09
-6.56768e-11
-2.16192e-09
8.376e-10
-1.48133e-09
1.40227e-09
-8.342e-10
1.65642e-09
-2.39766e-10
1.63982e-09
2.7783e-10
1.40623e-09
6.88101e-10
1.02591e-09
9.52865e-10
5.8761e-10
1.02559e-09
1.99754e-10
8.53489e-10
3.88716e-10
8.22494e-11
-4.36084e-10
9.81449e-11
-5.39136e-10
-1.04089e-10
-1.24946e-10
-6.28306e-10
6.30925e-10
-1.545e-09
1.60423e-09
-2.89771e-09
2.70261e-09
-4.70853e-09
3.85884e-09
-6.983e-09
5.02508e-09
-9.71426e-09
6.16786e-09
-1.28864e-08
7.26419e-09
-1.6477e-08
8.29869e-09
-2.04593e-08
9.26156e-09
-2.48037e-08
1.0147e-08
-2.94789e-08
1.09523e-08
-3.4453e-08
1.16765e-08
-3.96938e-08
1.23204e-08
-4.51697e-08
1.28857e-08
-5.08497e-08
1.33749e-08
-5.67036e-08
1.37907e-08
-6.27023e-08
1.41362e-08
-6.88179e-08
1.44144e-08
-7.50236e-08
1.46285e-08
-8.12935e-08
1.47812e-08
-8.76029e-08
1.48754e-08
-9.3928e-08
1.49134e-08
-1.00246e-07
1.48975e-08
-1.06534e-07
1.48297e-08
-1.12772e-07
1.47115e-08
-1.18937e-07
1.45445e-08
-1.25011e-07
1.43297e-08
-1.30972e-07
1.40682e-08
-1.36801e-07
1.37605e-08
-1.42478e-07
1.34074e-08
-1.47985e-07
1.30093e-08
-1.53302e-07
1.25665e-08
-1.5841e-07
1.20793e-08
-1.63291e-07
1.15479e-08
-1.67926e-07
1.09727e-08
-1.72297e-07
1.03541e-08
-1.76386e-07
9.69243e-09
-1.80174e-07
8.98837e-09
-1.83645e-07
8.24269e-09
-1.86781e-07
7.4564e-09
-1.89567e-07
6.63076e-09
-1.91985e-07
5.76731e-09
-1.94023e-07
4.8679e-09
-1.95665e-07
3.9347e-09
-1.969e-07
2.97026e-09
-1.97715e-07
1.97748e-09
-1.981e-07
9.59638e-10
-1.98046e-07
-7.95821e-11
-1.97548e-07
-1.13612e-09
-1.966e-07
-2.20555e-09
-1.95198e-07
-3.28306e-09
-1.93343e-07
-4.36348e-09
-1.91034e-07
-5.44133e-09
-1.88278e-07
-6.51082e-09
-1.85079e-07
-7.56589e-09
-1.81446e-07
-8.60028e-09
-1.77392e-07
-9.60754e-09
-1.72931e-07
-1.05811e-08
-1.68079e-07
-1.15144e-08
-1.62856e-07
-1.24006e-08
-1.57286e-07
-1.32334e-08
-1.51392e-07
-1.40062e-08
-1.45202e-07
-1.47128e-08
-1.38747e-07
-1.53472e-08
-1.3206e-07
-1.59039e-08
-1.25173e-07
-1.63776e-08
-1.18124e-07
-1.67635e-08
-1.10951e-07
-1.70576e-08
-1.03694e-07
-1.72562e-08
-9.63925e-08
-1.73564e-08
-8.90887e-08
-1.73561e-08
-8.18248e-08
-1.72538e-08
-7.46429e-08
-1.70489e-08
-6.75854e-08
-1.67416e-08
-6.06941e-08
-1.63331e-08
-5.40098e-08
-1.58251e-08
-4.75723e-08
-1.52208e-08
-4.14196e-08
-1.45238e-08
-3.55877e-08
-1.3739e-08
-3.01102e-08
-1.2872e-08
-2.50178e-08
-1.19296e-08
-2.0338e-08
-1.09197e-08
-1.60944e-08
-9.85121e-09
-1.23061e-08
-8.73443e-09
-8.98741e-09
-7.58106e-09
-6.14707e-09
-6.40451e-09
-3.78727e-09
-5.22026e-09
-1.90285e-09
-4.04634e-09
-4.80174e-10
-2.90401e-09
5.04279e-10
-1.81865e-09
1.08542e-09
-8.20896e-10
1.31135e-09
5.18927e-11
1.24537e-09
7.54065e-10
9.68137e-10
1.2301e-09
5.79867e-10
1.41387e-09
2.0374e-10
1.22961e-09
5.92452e-10
1.33606e-12
-4.37426e-10
-1.83317e-10
-3.54483e-10
-6.88989e-10
3.80734e-10
-1.6114e-09
1.55334e-09
-3.01658e-09
3.0094e-09
-4.94583e-09
4.63188e-09
-7.42013e-09
6.33313e-09
-1.0444e-08
8.04899e-09
-1.40093e-08
9.73315e-09
-1.8098e-08
1.13528e-08
-2.26847e-08
1.28854e-08
-2.77391e-08
1.4316e-08
-3.32272e-08
1.56351e-08
-3.91129e-08
1.68379e-08
-4.53588e-08
1.79224e-08
-5.19272e-08
1.88888e-08
-5.87804e-08
1.9739e-08
-6.58815e-08
2.0476e-08
-7.31943e-08
2.11034e-08
-8.06835e-08
2.16254e-08
-8.83152e-08
2.20461e-08
-9.60566e-08
2.23698e-08
-1.03876e-07
2.26005e-08
-1.11743e-07
2.27421e-08
-1.19627e-07
2.27981e-08
-1.27501e-07
2.27717e-08
-1.35337e-07
2.26657e-08
-1.43108e-07
2.24825e-08
-1.50788e-07
2.22244e-08
-1.58351e-07
2.18929e-08
-1.65773e-07
2.14895e-08
-1.73028e-07
2.10154e-08
-1.80092e-07
2.04715e-08
-1.86941e-07
1.98586e-08
-1.93552e-07
1.91772e-08
-1.999e-07
1.84278e-08
-2.05963e-07
1.76111e-08
-2.11718e-07
1.67275e-08
-2.17142e-07
1.57777e-08
-2.22212e-07
1.47626e-08
-2.26907e-07
1.36831e-08
-2.31205e-07
1.25407e-08
-2.35085e-07
1.13368e-08
-2.38528e-07
1.00737e-08
-2.41514e-07
8.7536e-09
-2.44026e-07
7.37954e-09
-2.46046e-07
5.95488e-09
-2.47559e-07
4.48354e-09
-2.48552e-07
2.97002e-09
-2.49012e-07
1.41934e-09
-2.48928e-07
-1.62903e-10
-2.48294e-07
-1.77051e-09
-2.47103e-07
-3.39675e-09
-2.45351e-07
-5.03435e-09
-2.43039e-07
-6.67551e-09
-2.40169e-07
-8.31193e-09
-2.36745e-07
-9.93491e-09
-2.32775e-07
-1.15354e-08
-2.28272e-07
-1.31038e-08
-2.23249e-07
-1.46307e-08
-2.17724e-07
-1.61061e-08
-2.11718e-07
-1.75201e-08
-2.05256e-07
-1.88629e-08
-1.98364e-07
-2.01245e-08
-1.91075e-07
-2.12954e-08
-1.83422e-07
-2.23662e-08
-1.75441e-07
-2.33282e-08
-1.67172e-07
-2.41729e-08
-1.58657e-07
-2.48925e-08
-1.4994e-07
-2.54801e-08
-1.41068e-07
-2.59294e-08
-1.32089e-07
-2.62352e-08
-1.23053e-07
-2.63931e-08
-1.14009e-07
-2.63999e-08
-1.05009e-07
-2.62535e-08
-9.61051e-08
-2.59531e-08
-8.73476e-08
-2.54991e-08
-7.87875e-08
-2.48931e-08
-7.04745e-08
-2.41382e-08
-6.24564e-08
-2.32388e-08
-5.47795e-08
-2.22008e-08
-4.74872e-08
-2.10313e-08
-4.062e-08
-1.97391e-08
-3.42149e-08
-1.83347e-08
-2.83049e-08
-1.68297e-08
-2.2918e-08
-1.52381e-08
-1.80773e-08
-1.35752e-08
-1.37995e-08
-1.18589e-08
-1.00948e-08
-1.01092e-08
-6.96559e-09
-8.34946e-09
-4.40576e-09
-6.60617e-09
-2.39942e-09
-4.91036e-09
-9.19684e-10
-3.29838e-09
7.26862e-11
-1.81326e-09
6.30854e-10
-5.0628e-10
8.23593e-10
5.61325e-10
7.37233e-10
1.31647e-09
4.78085e-10
1.67302e-09
1.76634e-10
1.53106e-09
7.69087e-10
-9.21265e-11
-3.45295e-10
-5.11363e-10
6.47602e-11
-1.36717e-09
1.23654e-09
-2.74012e-09
2.9263e-09
-4.68639e-09
4.95567e-09
-7.24084e-09
7.18634e-09
-1.04201e-08
9.51241e-09
-1.42256e-08
1.18545e-08
-1.86463e-08
1.41539e-08
-2.36616e-08
1.63681e-08
-2.92433e-08
1.8467e-08
-3.53575e-08
2.04302e-08
-4.19666e-08
2.22443e-08
-4.90303e-08
2.39017e-08
-5.65069e-08
2.5399e-08
-6.43538e-08
2.67357e-08
-7.25284e-08
2.79136e-08
-8.09886e-08
2.89362e-08
-8.96929e-08
2.98077e-08
-9.86009e-08
3.05334e-08
-1.07673e-07
3.11184e-08
-1.16872e-07
3.15682e-08
-1.26159e-07
3.18881e-08
-1.355e-07
3.20832e-08
-1.4486e-07
3.2158e-08
-1.54205e-07
3.21168e-08
-1.63503e-07
3.19634e-08
-1.72722e-07
3.17011e-08
-1.8183e-07
3.13328e-08
-1.90798e-07
3.08608e-08
-1.99595e-07
3.02871e-08
-2.08193e-07
2.96134e-08
-2.16563e-07
2.8841e-08
-2.24675e-07
2.7971e-08
-2.32502e-07
2.70044e-08
-2.40017e-07
2.5942e-08
-2.4719e-07
2.47847e-08
-2.53996e-07
2.35333e-08
-2.60407e-07
2.21891e-08
-2.66398e-07
2.07531e-08
-2.71942e-07
1.92272e-08
-2.77014e-07
1.76131e-08
-2.81591e-07
1.59135e-08
-2.85649e-07
1.41313e-08
-2.89165e-07
1.22699e-08
-2.92119e-07
1.03337e-08
-2.94492e-07
8.32745e-09
-2.96265e-07
6.25674e-09
-2.97423e-07
4.12794e-09
-2.97952e-07
1.94815e-09
-2.9784e-07
-2.74735e-10
-2.97078e-07
-2.53205e-09
-2.95661e-07
-4.81435e-09
-2.93584e-07
-7.11146e-09
-2.90847e-07
-9.41252e-09
-2.87452e-07
-1.1706e-08
-2.83408e-07
-1.39798e-08
-2.78722e-07
-1.62212e-08
-2.73408e-07
-1.84173e-08
-2.67484e-07
-2.05546e-08
-2.60971e-07
-2.26195e-08
-2.53893e-07
-2.45982e-08
-2.46279e-07
-2.64772e-08
-2.3816e-07
-2.82429e-08
-2.29574e-07
-2.98819e-08
-2.20558e-07
-3.13815e-08
-2.11157e-07
-3.27294e-08
-2.01416e-07
-3.39141e-08
-1.91384e-07
-3.49249e-08
-1.81112e-07
-3.57521e-08
-1.70654e-07
-3.63873e-08
-1.60066e-07
-3.68231e-08
-1.49405e-07
-3.70536e-08
-1.38731e-07
-3.70746e-08
-1.28101e-07
-3.6883e-08
-1.17577e-07
-3.64779e-08
-1.07216e-07
-3.58597e-08
-9.7078e-08
-3.5031e-08
-8.72201e-08
-3.39961e-08
-7.76979e-08
-3.2761e-08
-6.85645e-08
-3.13341e-08
-5.98703e-08
-2.97256e-08
-5.16618e-08
-2.79476e-08
-4.39818e-08
-2.60147e-08
-3.6868e-08
-2.39435e-08
-3.03528e-08
-2.17532e-08
-2.44626e-08
-1.94654e-08
-1.92166e-08
-1.71048e-08
-1.46266e-08
-1.46992e-08
-1.06957e-08
-1.22804e-08
-7.4175e-09
-9.88441e-09
-4.77498e-09
-7.55288e-09
-2.73952e-09
-5.33383e-09
-1.2696e-09
-3.28318e-09
-3.09563e-10
-1.46632e-09
2.11842e-10
3.9928e-11
3.83092e-10
1.14522e-09
3.12165e-10
1.74394e-09
1.30159e-10
1.71306e-09
8.99249e-10
-1.91177e-10
-1.54123e-10
-8.63563e-10
7.37143e-10
-2.09794e-09
2.47093e-09
-3.95551e-09
4.78387e-09
-6.4788e-09
7.47896e-09
-9.69301e-09
1.04005e-08
-1.36078e-08
1.34272e-08
-1.82194e-08
1.64661e-08
-2.35127e-08
1.94472e-08
-2.94634e-08
2.23188e-08
-3.60399e-08
2.50436e-08
-4.32051e-08
2.75954e-08
-5.09179e-08
2.9957e-08
-5.91342e-08
3.2118e-08
-6.78083e-08
3.40731e-08
-7.68937e-08
3.5821e-08
-8.63433e-08
3.73632e-08
-9.61106e-08
3.87034e-08
-1.0615e-07
3.98467e-08
-1.16415e-07
4.07989e-08
-1.26863e-07
4.15665e-08
-1.37451e-07
4.2156e-08
-1.48137e-07
4.25739e-08
-1.5888e-07
4.28265e-08
-1.69642e-07
4.29195e-08
-1.80383e-07
4.28584e-08
-1.91068e-07
4.26478e-08
-2.01658e-07
4.2292e-08
-2.1212e-07
4.17946e-08
-2.22418e-07
4.11588e-08
-2.32518e-07
4.03872e-08
-2.42387e-07
3.94819e-08
-2.51991e-07
3.84448e-08
-2.61297e-07
3.72775e-08
-2.70274e-07
3.59812e-08
-2.78889e-07
3.45572e-08
-2.87112e-07
3.30069e-08
-2.9491e-07
3.13315e-08
-3.02253e-07
2.95327e-08
-3.09112e-07
2.76123e-08
-3.15458e-07
2.55726e-08
-3.21261e-07
2.34165e-08
-3.26495e-07
2.11474e-08
-3.31133e-07
1.87693e-08
-3.3515e-07
1.62871e-08
-3.38523e-07
1.37064e-08
-3.41229e-07
1.10339e-08
-3.4325e-07
8.27713e-09
-3.44566e-07
5.44447e-09
-3.45164e-07
2.54544e-09
-3.45029e-07
-4.09456e-10
-3.44152e-07
-3.40871e-09
-3.42527e-07
-6.43983e-09
-3.40149e-07
-9.4894e-09
-3.37018e-07
-1.2543e-08
-3.33139e-07
-1.55856e-08
-3.28517e-07
-1.86011e-08
-3.23166e-07
-2.15729e-08
-3.17099e-07
-2.4484e-08
-3.10337e-07
-2.73168e-08
-3.02903e-07
-3.00534e-08
-2.94825e-07
-3.26758e-08
-2.86136e-07
-3.51662e-08
-2.76872e-07
-3.75067e-08
-2.67074e-07
-3.96801e-08
-2.56786e-07
-4.16697e-08
-2.46056e-07
-4.34593e-08
-2.34936e-07
-4.5034e-08
-2.23481e-07
-4.63798e-08
-2.11749e-07
-4.74842e-08
-1.998e-07
-4.83359e-08
-1.87698e-07
-4.89255e-08
-1.75506e-07
-4.92453e-08
-1.63291e-07
-4.92897e-08
-1.51119e-07
-4.9055e-08
-1.39057e-07
-4.85397e-08
-1.27172e-07
-4.77448e-08
-1.1553e-07
-4.66735e-08
-1.04194e-07
-4.53315e-08
-9.32284e-08
-4.37271e-08
-8.26915e-08
-4.1871e-08
-7.26402e-08
-3.97769e-08
-6.31269e-08
-3.74609e-08
-5.41993e-08
-3.49423e-08
-4.58999e-08
-3.22429e-08
-3.82652e-08
-2.9388e-08
-3.13246e-08
-2.6406e-08
-2.51001e-08
-2.33293e-08
-1.96053e-08
-2.0194e-08
-1.48445e-08
-1.70412e-08
-1.08119e-08
-1.39171e-08
-7.49035e-09
-1.08744e-08
-4.85097e-09
-7.97322e-09
-2.85163e-09
-5.28251e-09
-1.43619e-09
-2.88176e-09
-5.33299e-10
-8.62961e-10
-5.50971e-11
6.67017e-10
1.04466e-10
1.58438e-09
7.20734e-11
1.74546e-09
9.71323e-10
-2.91648e-10
1.37529e-10
-1.22586e-09
1.67136e-09
-2.85432e-09
4.0994e-09
-5.21683e-09
7.14638e-09
-8.33992e-09
1.06021e-08
-1.22368e-08
1.42974e-08
-1.69081e-08
1.80985e-08
-2.23431e-08
2.1901e-08
-2.85212e-08
2.56253e-08
-3.54136e-08
2.92112e-08
-4.29848e-08
3.26148e-08
-5.1194e-08
3.58046e-08
-5.99964e-08
3.87595e-08
-6.93446e-08
4.14662e-08
-7.91892e-08
4.39177e-08
-8.94798e-08
4.61116e-08
-1.00166e-07
4.80492e-08
-1.11197e-07
4.97342e-08
-1.22522e-07
5.11722e-08
-1.34093e-07
5.237e-08
-1.45862e-07
5.3335e-08
-1.57781e-07
5.40748e-08
-1.69804e-07
5.45972e-08
-1.81887e-07
5.49096e-08
-1.93986e-07
5.50189e-08
-2.0606e-07
5.49316e-08
-2.18065e-07
5.46534e-08
-2.29963e-07
5.41896e-08
-2.41713e-07
5.35446e-08
-2.53276e-07
5.27222e-08
-2.64615e-07
5.17259e-08
-2.75691e-07
5.05583e-08
-2.86468e-07
4.92218e-08
-2.96909e-07
4.77185e-08
-3.06978e-07
4.60502e-08
-3.1664e-07
4.42185e-08
-3.25858e-07
4.22254e-08
-3.34599e-07
4.00726e-08
-3.42829e-07
3.77624e-08
-3.50514e-07
3.52973e-08
-3.57622e-07
3.26805e-08
-3.64121e-07
2.99157e-08
-3.69981e-07
2.70075e-08
-3.75173e-07
2.39612e-08
-3.79669e-07
2.07831e-08
-3.83443e-07
1.74807e-08
-3.86472e-07
1.40624e-08
-3.88733e-07
1.05379e-08
-3.90206e-07
6.91816e-09
-3.90876e-07
3.2152e-09
-3.90728e-07
-5.57546e-10
-3.89751e-07
-4.38543e-09
-3.87939e-07
-8.25258e-09
-3.85286e-07
-1.21419e-08
-3.81794e-07
-1.60353e-08
-3.77466e-07
-1.99135e-08
-3.7231e-07
-2.37564e-08
-3.6634e-07
-2.7543e-08
-3.59573e-07
-3.12517e-08
-3.52029e-07
-3.48604e-08
-3.43736e-07
-3.83465e-08
-3.34724e-07
-4.16875e-08
-3.2503e-07
-4.48607e-08
-3.14692e-07
-4.7844e-08
-3.03757e-07
-5.06154e-08
-2.92273e-07
-5.31539e-08
-2.80293e-07
-5.54394e-08
-2.67874e-07
-5.7453e-08
-2.55077e-07
-5.91772e-08
-2.41965e-07
-6.0596e-08
-2.28605e-07
-6.16956e-08
-2.15066e-07
-6.24641e-08
-2.0142e-07
-6.28918e-08
-1.87738e-07
-6.29715e-08
-1.74094e-07
-6.26988e-08
-1.60562e-07
-6.20719e-08
-1.47215e-07
-6.10919e-08
-1.34126e-07
-5.9763e-08
-1.21365e-07
-5.80924e-08
-1.09001e-07
-5.60907e-08
-9.71004e-08
-5.37717e-08
-8.57249e-08
-5.11523e-08
-7.49325e-08
-4.82534e-08
-6.47757e-08
-4.5099e-08
-5.53016e-08
-4.1717e-08
-4.65505e-08
-3.81391e-08
-3.85552e-08
-3.44013e-08
-3.13407e-08
-3.05439e-08
-2.49226e-08
-2.66121e-08
-1.93071e-08
-2.26567e-08
-1.44896e-08
-1.87346e-08
-1.04541e-08
-1.49099e-08
-7.17241e-09
-1.12549e-08
-4.60335e-09
-7.85157e-09
-2.69188e-09
-4.79323e-09
-1.36841e-09
-2.18643e-09
-5.47906e-10
-1.53492e-10
-1.28928e-10
1.16541e-09
7.53131e-12
1.609e-09
9.78852e-10
-3.91328e-10
5.28858e-10
-1.58966e-09
2.86967e-09
-3.61874e-09
6.12848e-09
-6.49641e-09
1.00241e-08
-1.02319e-08
1.43376e-08
-1.4825e-08
1.88905e-08
-2.02656e-08
2.35391e-08
-2.65348e-08
2.81702e-08
-3.36053e-08
3.26958e-08
-4.14429e-08
3.70489e-08
-5.00074e-08
4.11793e-08
-5.9254e-08
4.50512e-08
-6.91342e-08
4.86396e-08
-7.95968e-08
5.19288e-08
-9.05891e-08
5.491e-08
-1.02057e-07
5.75798e-08
-1.13947e-07
5.9939e-08
-1.26204e-07
6.19916e-08
-1.38776e-07
6.37435e-08
-1.51608e-07
6.52024e-08
-1.6465e-07
6.63766e-08
-1.7785e-07
6.72748e-08
-1.91158e-07
6.7906e-08
-2.04527e-07
6.82787e-08
-2.1791e-07
6.8401e-08
-2.31258e-07
6.82804e-08
-2.44529e-07
6.79238e-08
-2.57676e-07
6.73373e-08
-2.70658e-07
6.65262e-08
-2.83431e-07
6.54951e-08
-2.95953e-07
6.42482e-08
-3.08184e-07
6.27887e-08
-3.20081e-07
6.11196e-08
-3.31606e-07
5.92436e-08
-3.42719e-07
5.71629e-08
-3.5338e-07
5.48798e-08
-3.63552e-07
5.23966e-08
-3.73195e-07
4.97159e-08
-3.82273e-07
4.68405e-08
-3.9075e-07
4.37739e-08
-3.98589e-07
4.052e-08
-4.05757e-07
3.70837e-08
-4.1222e-07
3.34708e-08
-4.17947e-07
2.9688e-08
-4.22907e-07
2.57434e-08
-4.27073e-07
2.16463e-08
-4.30418e-07
1.74072e-08
-4.32918e-07
1.30381e-08
-4.34553e-07
8.55269e-09
-4.35303e-07
3.96589e-09
-4.35155e-07
-7.05738e-10
-4.34096e-07
-5.44412e-09
-4.32119e-07
-1.02297e-08
-4.2922e-07
-1.50415e-08
-4.25398e-07
-1.98572e-08
-4.20658e-07
-2.46532e-08
-4.1501e-07
-2.94048e-08
-4.08466e-07
-3.40864e-08
-4.01047e-07
-3.86714e-08
-3.92774e-07
-4.31328e-08
-3.83678e-07
-4.74431e-08
-3.73791e-07
-5.15745e-08
-3.63152e-07
-5.54997e-08
-3.51805e-07
-5.91912e-08
-3.39797e-07
-6.26224e-08
-3.27184e-07
-6.57677e-08
-3.14021e-07
-6.86024e-08
-3.0037e-07
-7.11034e-08
-2.86298e-07
-7.32494e-08
-2.71873e-07
-7.50209e-08
-2.57168e-07
-7.6401e-08
-2.42257e-07
-7.7375e-08
-2.27217e-07
-7.79313e-08
-2.12128e-07
-7.8061e-08
-1.97068e-07
-7.77587e-08
-1.82118e-07
-7.70222e-08
-1.67357e-07
-7.58529e-08
-1.52864e-07
-7.42559e-08
-1.38716e-07
-7.22402e-08
-1.24988e-07
-6.98187e-08
-1.11752e-07
-6.70082e-08
-9.90742e-08
-6.38298e-08
-8.70189e-08
-6.03087e-08
-7.56432e-08
-5.64746e-08
-6.49986e-08
-5.23616e-08
-5.51294e-08
-4.80084e-08
-4.60719e-08
-4.34587e-08
-3.78543e-08
-3.87615e-08
-3.0495e-08
-3.39714e-08
-2.40024e-08
-2.91493e-08
-1.8374e-08
-2.4363e-08
-1.35958e-08
-1.96881e-08
-9.64128e-09
-1.52094e-08
-6.47137e-09
-1.10215e-08
-4.03348e-09
-7.23111e-09
-2.26124e-09
-3.95869e-09
-1.07404e-09
-1.34068e-09
-3.76859e-10
4.68239e-10
-6.0139e-11
1.29228e-09
9.18715e-10
-4.89032e-10
1.0179e-09
-1.9498e-09
4.33044e-09
-4.37997e-09
8.55865e-09
-7.77575e-09
1.34198e-08
-1.21286e-08
1.86905e-08
-1.74239e-08
2.41857e-08
-2.36401e-08
2.97552e-08
-3.07486e-08
3.52788e-08
-3.87148e-08
4.0662e-08
-4.74981e-08
4.58321e-08
-5.7053e-08
5.07342e-08
-6.73302e-08
5.53283e-08
-7.82771e-08
5.95865e-08
-8.98389e-08
6.34907e-08
-1.01959e-07
6.70305e-08
-1.14581e-07
7.02017e-08
-1.27647e-07
7.30049e-08
-1.411e-07
7.54441e-08
-1.54882e-07
7.75257e-08
-1.68938e-07
7.92582e-08
-1.83212e-07
8.06507e-08
-1.9765e-07
8.17132e-08
-2.122e-07
8.24555e-08
-2.26809e-07
8.28875e-08
-2.41426e-07
8.30184e-08
-2.56002e-07
8.28567e-08
-2.70489e-07
8.24104e-08
-2.84838e-07
8.16864e-08
-2.99003e-07
8.06911e-08
-3.12938e-07
7.94298e-08
-3.26597e-07
7.79073e-08
-3.39936e-07
7.61276e-08
-3.5291e-07
7.40943e-08
-3.65477e-07
7.18104e-08
-3.77594e-07
6.92791e-08
-3.89217e-07
6.6503e-08
-4.00305e-07
6.34852e-08
-4.10818e-07
6.02288e-08
-4.20715e-07
5.67375e-08
-4.29957e-07
5.30155e-08
-4.38505e-07
4.9068e-08
-4.46322e-07
4.49009e-08
-4.53372e-07
4.05213e-08
-4.59622e-07
3.59377e-08
-4.65039e-07
3.11599e-08
-4.69592e-07
2.61991e-08
-4.73253e-07
2.10683e-08
-4.75996e-07
1.5782e-08
-4.778e-07
1.03566e-08
-4.78645e-07
4.81027e-09
-4.78513e-07
-8.37056e-10
-4.77394e-07
-6.56364e-09
-4.75278e-07
-1.2346e-08
-4.7216e-07
-1.81589e-08
-4.68042e-07
-2.39757e-08
-4.62927e-07
-2.9768e-08
-4.56826e-07
-3.55062e-08
-4.49752e-07
-4.11598e-08
-4.41727e-07
-4.66969e-08
-4.32774e-07
-5.20852e-08
-4.22925e-07
-5.72919e-08
-4.12216e-07
-6.22839e-08
-4.00688e-07
-6.70282e-08
-3.88387e-07
-7.14923e-08
-3.75365e-07
-7.56444e-08
-3.61679e-07
-7.94537e-08
-3.4739e-07
-8.28909e-08
-3.32565e-07
-8.59283e-08
-3.17274e-07
-8.85404e-08
-3.01591e-07
-9.07041e-08
-2.85593e-07
-9.23988e-08
-2.69361e-07
-9.36072e-08
-2.52977e-07
-9.43153e-08
-2.36526e-07
-9.45124e-08
-2.20092e-07
-9.41921e-08
-2.03763e-07
-9.33516e-08
-1.87623e-07
-9.19926e-08
-1.71758e-07
-9.01213e-08
-1.5625e-07
-8.77482e-08
-1.4118e-07
-8.48888e-08
-1.26624e-07
-8.15632e-08
-1.12658e-07
-7.77967e-08
-9.9347e-08
-7.36193e-08
-8.67552e-08
-6.90664e-08
-7.49382e-08
-6.41786e-08
-6.39443e-08
-5.90022e-08
-5.38141e-08
-5.3589e-08
-4.45789e-08
-4.79967e-08
-3.62604e-08
-4.22899e-08
-2.887e-08
-3.65397e-08
-2.2408e-08
-3.0825e-08
-1.68628e-08
-2.52333e-08
-1.22109e-08
-1.98612e-08
-8.41617e-09
-1.48163e-08
-5.42939e-09
-1.02179e-08
-3.18853e-09
-6.19955e-09
-1.61854e-09
-2.91067e-09
-6.3179e-10
-5.18509e-10
-1.28833e-10
7.89326e-10
7.89885e-10
-5.84146e-10
1.60204e-09
-2.30328e-09
6.04957e-09
-5.13103e-09
1.13864e-08
-9.04279e-09
1.73316e-08
-1.40124e-08
2.366e-08
-2.00103e-08
3.01837e-08
-2.70028e-08
3.67477e-08
-3.49512e-08
4.32272e-08
-4.38125e-08
4.95233e-08
-5.35391e-08
5.55587e-08
-6.40797e-08
6.12749e-08
-7.538e-08
6.66286e-08
-8.7383e-08
7.15896e-08
-1.0003e-07
7.61378e-08
-1.13262e-07
8.02619e-08
-1.27017e-07
8.39569e-08
-1.41235e-07
8.72231e-08
-1.55856e-07
9.00648e-08
-1.70819e-07
9.24891e-08
-1.86066e-07
9.4505e-08
-2.01538e-07
9.61227e-08
-2.17178e-07
9.73533e-08
-2.3293e-07
9.82076e-08
-2.48739e-07
9.86966e-08
-2.64552e-07
9.88307e-08
-2.80314e-07
9.86195e-08
-2.95976e-07
9.80719e-08
-3.11485e-07
9.71959e-08
-3.26793e-07
9.59986e-08
-3.41849e-07
9.44862e-08
-3.56606e-07
9.26641e-08
-3.71015e-07
9.05371e-08
-3.8503e-07
8.81093e-08
-3.98605e-07
8.53845e-08
-4.11692e-07
8.23663e-08
-4.24247e-07
7.9058e-08
-4.36225e-07
7.54633e-08
-4.47582e-07
7.15861e-08
-4.58276e-07
6.7431e-08
-4.68263e-07
6.30031e-08
-4.77504e-07
5.83085e-08
-4.85958e-07
5.33547e-08
-4.93586e-07
4.81501e-08
-5.00354e-07
4.27049e-08
-5.06224e-07
3.70307e-08
-5.11166e-07
3.11411e-08
-5.1515e-07
2.50514e-08
-5.18147e-07
1.8779e-08
-5.20133e-07
1.23431e-08
-5.21088e-07
5.76532e-09
-5.20994e-07
-9.30875e-10
-5.19838e-07
-7.71983e-09
-5.1761e-07
-1.45739e-08
-5.14306e-07
-2.14633e-08
-5.09925e-07
-2.83568e-08
-5.04472e-07
-3.52209e-08
-4.97957e-07
-4.20211e-08
-4.90395e-07
-4.87213e-08
-4.81808e-07
-5.52842e-08
-4.72222e-07
-6.16718e-08
-4.61668e-07
-6.78457e-08
-4.50185e-07
-7.3767e-08
-4.37816e-07
-7.9397e-08
-4.2461e-07
-8.46977e-08
-4.10623e-07
-8.96316e-08
-3.95914e-07
-9.41626e-08
-3.80549e-07
-9.82562e-08
-3.64597e-07
-1.0188e-07
-3.48134e-07
-1.05004e-07
-3.31237e-07
-1.07601e-07
-3.13989e-07
-1.09647e-07
-2.96475e-07
-1.11121e-07
-2.78784e-07
-1.12007e-07
-2.61004e-07
-1.12292e-07
-2.43228e-07
-1.11968e-07
-2.25547e-07
-1.11033e-07
-2.08052e-07
-1.09488e-07
-1.90834e-07
-1.07339e-07
-1.73981e-07
-1.04601e-07
-1.57581e-07
-1.01289e-07
-1.41715e-07
-9.74292e-08
-1.26462e-07
-9.30494e-08
-1.11896e-07
-8.81853e-08
-9.80838e-08
-8.28783e-08
-8.50866e-08
-7.71758e-08
-7.29572e-08
-7.11316e-08
-6.17402e-08
-6.48059e-08
-5.1471e-08
-5.8266e-08
-4.21749e-08
-5.15859e-08
-3.38668e-08
-4.48478e-08
-2.65504e-08
-3.81415e-08
-2.02175e-08
-3.15662e-08
-1.48481e-08
-2.52307e-08
-1.04096e-08
-1.92547e-08
-6.85737e-09
-1.37702e-08
-4.13421e-09
-8.9227e-09
-2.17131e-09
-4.87356e-09
-8.88818e-10
-1.80101e-09
-1.97267e-10
9.77791e-11
5.92619e-10
-6.76416e-10
2.27845e-09
-2.6485e-09
8.02165e-09
-5.86778e-09
1.46057e-08
-1.02899e-08
2.17537e-08
-1.58715e-08
2.92416e-08
-2.25682e-08
3.68804e-08
-3.03337e-08
4.45131e-08
-3.91187e-08
5.20123e-08
-4.88712e-08
5.92758e-08
-5.95362e-08
6.62237e-08
-7.10561e-08
7.27948e-08
-8.33712e-08
7.89436e-08
-9.64197e-08
8.46382e-08
-1.10139e-07
8.98572e-08
-1.24466e-07
9.45885e-08
-1.39336e-07
9.88268e-08
-1.54685e-07
1.02573e-07
-1.70451e-07
1.0583e-07
-1.8657e-07
1.08608e-07
-2.0298e-07
1.10915e-07
-2.1962e-07
1.12763e-07
-2.3643e-07
1.14164e-07
-2.53352e-07
1.1513e-07
-2.70328e-07
1.15672e-07
-2.87301e-07
1.15804e-07
-3.04216e-07
1.15534e-07
-3.21017e-07
1.14874e-07
-3.37653e-07
1.13831e-07
-3.54069e-07
1.12414e-07
-3.70213e-07
1.10631e-07
-3.86035e-07
1.08486e-07
-4.01485e-07
1.05986e-07
-4.16511e-07
1.03135e-07
-4.31064e-07
9.99383e-08
-4.45097e-07
9.6399e-08
-4.58561e-07
9.25215e-08
-4.71408e-07
8.83103e-08
-4.83591e-07
8.37699e-08
-4.95066e-07
7.89059e-08
-5.05788e-07
7.37243e-08
-5.15712e-07
6.82325e-08
-5.24796e-07
6.24392e-08
-5.33e-07
5.63545e-08
-5.40286e-07
4.99902e-08
-5.46615e-07
4.33601e-08
-5.51954e-07
3.648e-08
-5.5627e-07
2.93678e-08
-5.59535e-07
2.20436e-08
-5.61722e-07
1.45301e-08
-5.62809e-07
6.85212e-09
-5.62777e-07
-9.62957e-10
-5.61611e-07
-8.88541e-09
-5.59302e-07
-1.68832e-08
-5.55843e-07
-2.49219e-08
-5.51235e-07
-3.29652e-08
-5.45481e-07
-4.09747e-08
-5.38592e-07
-4.89101e-08
-5.30583e-07
-5.67298e-08
-5.21477e-07
-6.43908e-08
-5.11299e-07
-7.18491e-08