/*--------------------------------*- C++ -*----------------------------------*\
| =========                 |                                                 |
| \\      /  F ield         | OpenFOAM: The Open Source CFD Toolbox           |
|  \\    /   O peration     | Version:  2512                                  |
|   \\  /    A nd           | Website:  www.openfoam.com                      |
|    \\/     M anipulation  |                                                 |
\*---------------------------------------------------------------------------*/
FoamFile
{
    version     2.0;
    format      ascii;
    arch        "LSB;label=32;scalar=64";
    class       volVectorField;
    location    "0.38";
    object      U;
}
// * * * * * * * * * * * * * * * * * * * * * * * * * * * * * * * * * * * * * //

dimensions      [0 1 -1 0 0 0 0];

internalField   nonuniform List<vector> 
10000
(
(3.24681e-06 -3.34651e-06 0)
(1.42024e-05 -7.01556e-06 0)
(2.92085e-05 -7.13657e-06 0)
(4.09617e-05 -5.24149e-06 0)
(4.53457e-05 -2.41193e-06 0)
(4.07512e-05 7.65419e-07 0)
(2.65642e-05 3.98704e-06 0)
(2.73249e-06 7.09745e-06 0)
(-3.04496e-05 1.00183e-05 0)
(-7.24829e-05 1.27143e-05 0)
(-0.000122761 1.51742e-05 0)
(-0.000180624 1.73956e-05 0)
(-0.000245387 1.93825e-05 0)
(-0.000316367 2.1145e-05 0)
(-0.000392893 2.26953e-05 0)
(-0.000474319 2.40466e-05 0)
(-0.000560028 2.52114e-05 0)
(-0.000649433 2.62022e-05 0)
(-0.000741981 2.70315e-05 0)
(-0.000837149 2.77088e-05 0)
(-0.000934446 2.82458e-05 0)
(-0.00103341 2.86534e-05 0)
(-0.00113361 2.89401e-05 0)
(-0.00123463 2.9114e-05 0)
(-0.0013361 2.91821e-05 0)
(-0.00143763 2.91483e-05 0)
(-0.00153888 2.90182e-05 0)
(-0.00163951 2.87966e-05 0)
(-0.0017392 2.84861e-05 0)
(-0.00183763 2.80885e-05 0)
(-0.00193449 2.76055e-05 0)
(-0.00202947 2.70377e-05 0)
(-0.00212228 2.63857e-05 0)
(-0.00221261 2.56502e-05 0)
(-0.00230017 2.48311e-05 0)
(-0.00238466 2.3927e-05 0)
(-0.00246577 2.29366e-05 0)
(-0.00254322 2.18605e-05 0)
(-0.00261669 2.06985e-05 0)
(-0.0026859 1.945e-05 0)
(-0.00275054 1.81142e-05 0)
(-0.00281032 1.66914e-05 0)
(-0.00286494 1.51832e-05 0)
(-0.00291413 1.3591e-05 0)
(-0.0029576 1.19162e-05 0)
(-0.00299508 1.01616e-05 0)
(-0.00302632 8.33079e-06 0)
(-0.00305108 6.42843e-06 0)
(-0.00306912 4.45996e-06 0)
(-0.00308025 2.43092e-06 0)
(-0.00308428 3.48104e-07 0)
(-0.00308106 -1.78004e-06 0)
(-0.00307047 -3.94434e-06 0)
(-0.00305241 -6.13485e-06 0)
(-0.00302682 -8.34072e-06 0)
(-0.00299368 -1.05508e-05 0)
(-0.00295302 -1.27528e-05 0)
(-0.0029049 -1.49332e-05 0)
(-0.00284942 -1.70783e-05 0)
(-0.00278673 -1.91736e-05 0)
(-0.00271706 -2.12043e-05 0)
(-0.00264063 -2.31557e-05 0)
(-0.00255776 -2.50134e-05 0)
(-0.00246879 -2.67621e-05 0)
(-0.00237412 -2.83868e-05 0)
(-0.0022742 -2.98731e-05 0)
(-0.00216951 -3.1207e-05 0)
(-0.0020606 -3.23753e-05 0)
(-0.00194804 -3.33661e-05 0)
(-0.00183245 -3.41684e-05 0)
(-0.00171446 -3.47722e-05 0)
(-0.00159477 -3.51688e-05 0)
(-0.00147407 -3.53511e-05 0)
(-0.00135308 -3.53135e-05 0)
(-0.00123255 -3.50518e-05 0)
(-0.00111322 -3.45641e-05 0)
(-0.000995845 -3.38504e-05 0)
(-0.000881165 -3.29124e-05 0)
(-0.000769919 -3.17533e-05 0)
(-0.000662829 -3.03783e-05 0)
(-0.000560592 -2.87948e-05 0)
(-0.00046388 -2.70116e-05 0)
(-0.000373328 -2.50394e-05 0)
(-0.00028953 -2.28908e-05 0)
(-0.00021303 -2.05802e-05 0)
(-0.00014432 -1.81242e-05 0)
(-8.38251e-05 -1.55411e-05 0)
(-3.19001e-05 -1.28518e-05 0)
(1.11823e-05 -1.00804e-05 0)
(4.52451e-05 -7.25518e-06 0)
(7.02244e-05 -4.4105e-06 0)
(8.61944e-05 -1.59062e-06 0)
(9.34021e-05 1.1448e-06 0)
(9.23198e-05 3.71065e-06 0)
(8.37302e-05 5.97849e-06 0)
(6.88537e-05 7.74703e-06 0)
(4.95147e-05 8.69878e-06 0)
(2.84506e-05 8.31986e-06 0)
(1.0213e-05 5.86549e-06 0)
(1.26235e-06 1.26736e-06 0)
(6.8768e-06 -1.41723e-05 0)
(2.56032e-05 -2.5736e-05 0)
(4.65698e-05 -2.34486e-05 0)
(5.71485e-05 -1.26226e-05 0)
(4.96679e-05 2.89136e-06 0)
(2.021e-05 2.06642e-05 0)
(-3.31707e-05 3.92006e-05 0)
(-0.000111091 5.7593e-05 0)
(-0.000213234 7.52969e-05 0)
(-0.000338688 9.19913e-05 0)
(-0.00048616 0.000107496 0)
(-0.000654122 0.00012172 0)
(-0.000840919 0.000134629 0)
(-0.00104484 0.000146229 0)
(-0.00126416 0.000156549 0)
(-0.0014972 0.000165634 0)
(-0.00174229 0.000173539 0)
(-0.00199786 0.000180324 0)
(-0.00226238 0.000186049 0)
(-0.00253441 0.000190773 0)
(-0.00281256 0.000194554 0)
(-0.00309555 0.000197448 0)
(-0.00338213 0.000199505 0)
(-0.00367113 0.000200772 0)
(-0.00396142 0.000201286 0)
(-0.00425195 0.000201085 0)
(-0.00454168 0.000200197 0)
(-0.00482963 0.000198649 0)
(-0.00511485 0.00019646 0)
(-0.0053964 0.000193645 0)
(-0.00567339 0.000190219 0)
(-0.0059449 0.000186188 0)
(-0.00621008 0.000181558 0)
(-0.00646803 0.000176333 0)
(-0.0067179 0.000170514 0)
(-0.00695882 0.000164102 0)
(-0.00718993 0.000157096 0)
(-0.00741037 0.000149497 0)
(-0.0076193 0.000141305 0)
(-0.00781585 0.000132523 0)
(-0.00799919 0.000123155 0)
(-0.00816849 0.000113206 0)
(-0.00832293 0.000102688 0)
(-0.00846172 9.16132e-05 0)
(-0.00858407 7.99986e-05 0)
(-0.00868926 6.78664e-05 0)
(-0.00877658 5.52441e-05 0)
(-0.00884537 4.21639e-05 0)
(-0.00889502 2.86635e-05 0)
(-0.00892498 1.47861e-05 0)
(-0.00893477 5.80424e-07 0)
(-0.00892399 -1.38974e-05 0)
(-0.00889232 -2.85861e-05 0)
(-0.00883952 -4.34195e-05 0)
(-0.00876546 -5.83254e-05 0)
(-0.00867012 -7.32265e-05 0)
(-0.00855359 -8.80412e-05 0)
(-0.00841606 -0.000102683 0)
(-0.00825788 -0.000117061 0)
(-0.00807949 -0.000131083 0)
(-0.00788148 -0.000144654 0)
(-0.00766458 -0.000157678 0)
(-0.00742965 -0.000170059 0)
(-0.00717766 -0.000181701 0)
(-0.00690976 -0.000192508 0)
(-0.00662717 -0.000202389 0)
(-0.00633129 -0.000211257 0)
(-0.0060236 -0.000219027 0)
(-0.00570572 -0.000225623 0)
(-0.00537934 -0.000230974 0)
(-0.00504626 -0.000235019 0)
(-0.00470836 -0.000237703 0)
(-0.00436759 -0.000238982 0)
(-0.00402594 -0.000238822 0)
(-0.00368545 -0.000237201 0)
(-0.00334818 -0.000234107 0)
(-0.00301618 -0.00022954 0)
(-0.00269151 -0.000223514 0)
(-0.00237619 -0.000216055 0)
(-0.00207221 -0.000207199 0)
(-0.00178147 -0.000196998 0)
(-0.0015058 -0.000185514 0)
(-0.00124692 -0.000172825 0)
(-0.00100646 -0.000159019 0)
(-0.00078586 -0.000144202 0)
(-0.000586434 -0.00012849 0)
(-0.000409295 -0.000112021 0)
(-0.000255345 -9.49477e-05 0)
(-0.000125241 -7.74511e-05 0)
(-1.93572e-05 -5.97404e-05 0)
(6.22693e-05 -4.20676e-05 0)
(0.00012 -2.47437e-05 0)
(0.000154683 -8.16554e-06 0)
(0.000167776 7.14578e-06 0)
(0.000161513 2.0482e-05 0)
(0.000139122 3.08623e-05 0)
(0.000105025 3.69263e-05 0)
(6.51264e-05 3.68015e-05 0)
(2.81109e-05 2.8166e-05 0)
(5.82616e-06 1.0189e-05 0)
(7.11372e-06 -2.91839e-05 0)
(2.34965e-05 -4.66617e-05 0)
(3.5638e-05 -3.55676e-05 0)
(2.93031e-05 -6.07639e-06 0)
(-4.5359e-06 3.44801e-05 0)
(-7.09718e-05 8.09835e-05 0)
(-0.000172801 0.000129961 0)
(-0.0003111 0.000179118 0)
(-0.000485678 0.00022695 0)
(-0.000695444 0.000272494 0)
(-0.000938701 0.000315157 0)
(-0.00121335 0.000354594 0)
(-0.00151706 0.00039063 0)
(-0.00184733 0.000423207 0)
(-0.00220163 0.000452347 0)
(-0.00257742 0.000478128 0)
(-0.00297221 0.000500661 0)
(-0.00338355 0.00052008 0)
(-0.0038091 0.000536527 0)
(-0.00424661 0.00055015 0)
(-0.00469391 0.000561094 0)
(-0.00514894 0.000569497 0)
(-0.00560972 0.00057549 0)
(-0.00607439 0.000579194 0)
(-0.00654113 0.000580714 0)
(-0.00700823 0.000580146 0)
(-0.00747402 0.000577572 0)
(-0.00793691 0.000573061 0)
(-0.00839533 0.00056667 0)
(-0.00884778 0.000558445 0)
(-0.00929277 0.000548424 0)
(-0.00972885 0.000536632 0)
(-0.0101546 0.000523088 0)
(-0.0105686 0.000507808 0)
(-0.0109694 0.000490799 0)
(-0.0113556 0.000472068 0)
(-0.0117259 0.000451619 0)
(-0.0120789 0.00042946 0)
(-0.0124131 0.000405598 0)
(-0.0127274 0.000380045 0)
(-0.0130202 0.000352817 0)
(-0.0132903 0.000323941 0)
(-0.0135364 0.00029345 0)
(-0.0137573 0.000261388 0)
(-0.0139516 0.000227809 0)
(-0.0141184 0.000192781 0)
(-0.0142565 0.000156385 0)
(-0.0143648 0.000118718 0)
(-0.0144424 7.98909e-05 0)
(-0.0144885 4.00298e-05 0)
(-0.0145024 -7.22281e-07 0)
(-0.0144834 -4.22063e-05 0)
(-0.014431 -8.4247e-05 0)
(-0.0143451 -0.000126654 0)
(-0.0142252 -0.000169224 0)
(-0.0140716 -0.000211738 0)
(-0.0138843 -0.000253963 0)
(-0.0136636 -0.000295657 0)
(-0.0134102 -0.000336567 0)
(-0.0131248 -0.000376433 0)
(-0.0128083 -0.000414991 0)
(-0.0124619 -0.000451972 0)
(-0.0120869 -0.000487107 0)
(-0.011685 -0.000520129 0)
(-0.011258 -0.000550775 0)
(-0.0108077 -0.000578791 0)
(-0.0103364 -0.000603934 0)
(-0.00984641 -0.000625974 0)
(-0.00934027 -0.000644698 0)
(-0.00882067 -0.000659912 0)
(-0.00829041 -0.000671443 0)
(-0.00775244 -0.000679146 0)
(-0.0072098 -0.000682899 0)
(-0.00666561 -0.00068261 0)
(-0.00612305 -0.000678219 0)
(-0.00558534 -0.000669697 0)
(-0.00505569 -0.00065705 0)
(-0.00453729 -0.000640317 0)
(-0.00403331 -0.000619574 0)
(-0.00354682 -0.000594931 0)
(-0.00308078 -0.000566535 0)
(-0.00263802 -0.000534572 0)
(-0.00222123 -0.000499264 0)
(-0.00183288 -0.000460874 0)
(-0.0014752 -0.000419704 0)
(-0.00115018 -0.000376103 0)
(-0.000859513 -0.000330469 0)
(-0.000604519 -0.00028326 0)
(-0.00038614 -0.000235003 0)
(-0.000204863 -0.000186311 0)
(-6.06425e-05 -0.000137916 0)
(4.71835e-05 -9.06989e-05 0)
(0.000120014 -4.57523e-05 0)
(0.000160127 -4.45192e-06 0)
(0.000170869 3.14343e-05 0)
(0.000156874 5.96182e-05 0)
(0.000124204 7.71616e-05 0)
(8.05289e-05 8.03988e-05 0)
(3.67546e-05 6.51542e-05 0)
(8.25121e-06 2.83374e-05 0)
(5.31812e-06 -4.09945e-05 0)
(1.28892e-05 -5.73276e-05 0)
(6.37059e-06 -2.92626e-05 0)
(-2.77031e-05 2.78934e-05 0)
(-9.83409e-05 0.0001033 0)
(-0.000211027 0.00018903 0)
(-0.000368876 0.000279429 0)
(-0.000573164 0.000370553 0)
(-0.000823739 0.000459696 0)
(-0.00111939 0.000545043 0)
(-0.00145813 0.000625404 0)
(-0.00183747 0.000700043 0)
(-0.00225456 0.000768545 0)
(-0.00270632 0.000830722 0)
(-0.00318958 0.000886545 0)
(-0.00370112 0.000936098 0)
(-0.00423773 0.00097954 0)
(-0.00479628 0.00101708 0)
(-0.00537371 0.00104896 0)
(-0.00596705 0.00107541 0)
(-0.00657345 0.00109671 0)
(-0.00719017 0.00111309 0)
(-0.00781457 0.00112478 0)
(-0.00844414 0.001132 0)
(-0.00907645 0.00113495 0)
(-0.00970915 0.00113379 0)
(-0.01034 0.00112869 0)
(-0.0109668 0.00111978 0)
(-0.0115875 0.00110715 0)
(-0.0122 0.00109091 0)
(-0.0128022 0.00107112 0)
(-0.0133922 0.00104784 0)
(-0.013968 0.00102111 0)
(-0.0145277 0.000990957 0)
(-0.0150693 0.000957413 0)
(-0.015591 0.000920493 0)
(-0.016091 0.000880214 0)
(-0.0165672 0.000836595 0)
(-0.017018 0.00078966 0)
(-0.0174414 0.00073944 0)
(-0.0178357 0.000685977 0)
(-0.0181991 0.000629327 0)
(-0.0185298 0.000569562 0)
(-0.0188263 0.000506776 0)
(-0.0190869 0.000441083 0)
(-0.0193101 0.00037262 0)
(-0.0194944 0.00030155 0)
(-0.0196386 0.000228066 0)
(-0.0197413 0.000152386 0)
(-0.0198015 7.47609e-05 0)
(-0.0198183 -4.53039e-06 0)
(-0.0197909 -8.51781e-05 0)
(-0.0197186 -0.000166843 0)
(-0.0196012 -0.000249157 0)
(-0.0194383 -0.000331725 0)
(-0.0192301 -0.000414125 0)
(-0.0189767 -0.000495913 0)
(-0.0186787 -0.000576622 0)
(-0.0183369 -0.000655771 0)
(-0.0179522 -0.000732862 0)
(-0.0175261 -0.000807389 0)
(-0.0170599 -0.00087884 0)
(-0.0165557 -0.000946704 0)
(-0.0160154 -0.00101047 0)
(-0.0154416 -0.00106965 0)
(-0.0148367 -0.00112375 0)
(-0.0142037 -0.00117231 0)
(-0.0135457 -0.0012149 0)
(-0.0128661 -0.00125112 0)
(-0.0121684 -0.00128059 0)
(-0.0114564 -0.001303 0)
(-0.0107339 -0.00131807 0)
(-0.0100049 -0.00132557 0)
(-0.00927361 -0.00132533 0)
(-0.00854418 -0.00131724 0)
(-0.00782083 -0.00130124 0)
(-0.00710783 -0.00127736 0)
(-0.00640936 -0.00124568 0)
(-0.00572958 -0.00120633 0)
(-0.00507253 -0.00115955 0)
(-0.00444209 -0.00110562 0)
(-0.003842 -0.0010449 0)
(-0.00327573 -0.000977835 0)
(-0.00274652 -0.000904934 0)
(-0.00225728 -0.000826795 0)
(-0.00181057 -0.000744102 0)
(-0.00140856 -0.000657636 0)
(-0.00105292 -0.000568294 0)
(-0.000744837 -0.000477104 0)
(-0.000484863 -0.000385257 0)
(-0.000272881 -0.000294154 0)
(-0.000107982 -0.000205457 0)
(1.16582e-05 -0.000121176 0)
(8.89169e-05 -4.37718e-05 0)
(0.000127904 2.3708e-05 0)
(0.000134156 7.74762e-05 0)
(0.000114731 0.000112865 0)
(7.83507e-05 0.000124266 0)
(3.72184e-05 0.000105294 0)
(8.65631e-06 4.93575e-05 0)
(2.57802e-06 -4.56307e-05 0)
(-2.51823e-06 -4.99826e-05 0)
(-3.4337e-05 4.68652e-06 0)
(-0.000103772 9.86461e-05 0)
(-0.000218832 0.000217844 0)
(-0.000384797 0.000351738 0)
(-0.000604672 0.000492537 0)
(-0.000879638 0.000634623 0)
(-0.00120943 0.000774005 0)
(-0.00159267 0.000907901 0)
(-0.00202714 0.00103442 0)
(-0.00250999 0.00115235 0)
(-0.00303799 0.00126093 0)
(-0.00360759 0.0013598 0)
(-0.0042151 0.00144882 0)
(-0.00485675 0.00152805 0)
(-0.00552876 0.00159768 0)
(-0.00622739 0.00165797 0)
(-0.00694897 0.00170926 0)
(-0.00768993 0.00175191 0)
(-0.00844681 0.00178627 0)
(-0.00921626 0.00181271 0)
(-0.00999507 0.00183157 0)
(-0.0107801 0.00184318 0)
(-0.0115684 0.00184785 0)
(-0.012357 0.00184583 0)
(-0.0131432 0.00183736 0)
(-0.0139242 0.00182265 0)
(-0.0146974 0.00180186 0)
(-0.0154602 0.00177515 0)
(-0.0162101 0.00174263 0)
(-0.0169445 0.00170439 0)
(-0.017661 0.0016605 0)
(-0.0183573 0.00161102 0)
(-0.0190309 0.001556 0)
(-0.0196794 0.00149547 0)
(-0.0203006 0.00142948 0)
(-0.0208921 0.00135805 0)
(-0.0214515 0.00128125 0)
(-0.0219768 0.00119914 0)
(-0.0224656 0.00111178 0)
(-0.0229157 0.00101929 0)
(-0.0233251 0.000921797 0)
(-0.0236918 0.00081945 0)
(-0.0240137 0.00071245 0)
(-0.0242891 0.000601027 0)
(-0.024516 0.000485453 0)
(-0.0246931 0.000366045 0)
(-0.0248187 0.000243164 0)
(-0.0248916 0.000117219 0)
(-0.0249106 -1.1337e-05 0)
(-0.0248749 -0.000142001 0)
(-0.0247837 -0.000274224 0)
(-0.0246367 -0.000407413 0)
(-0.0244335 -0.000540931 0)
(-0.0241743 -0.000674103 0)
(-0.0238594 -0.000806214 0)
(-0.0234894 -0.000936521 0)
(-0.0230655 -0.00106425 0)
(-0.0225887 -0.00118861 0)
(-0.0220608 -0.0013088 0)
(-0.0214837 -0.001424 0)
(-0.0208597 -0.00153339 0)
(-0.0201913 -0.00163618 0)
(-0.0194815 -0.00173156 0)
(-0.0187335 -0.00181878 0)
(-0.0179508 -0.0018971 0)
(-0.0171373 -0.00196584 0)
(-0.016297 -0.00202436 0)
(-0.0154343 -0.00207208 0)
(-0.0145537 -0.00210848 0)
(-0.01366 -0.00213314 0)
(-0.0127579 -0.00214569 0)
(-0.0118526 -0.00214587 0)
(-0.0109492 -0.00213351 0)
(-0.0100527 -0.00210852 0)
(-0.00916837 -0.00207095 0)
(-0.00830125 -0.00202093 0)
(-0.00745638 -0.00195869 0)
(-0.00663865 -0.00188461 0)
(-0.00585279 -0.00179915 0)
(-0.00510328 -0.0017029 0)
(-0.00439434 -0.00159657 0)
(-0.00372986 -0.00148101 0)
(-0.00311334 -0.00135717 0)
(-0.00254786 -0.00122618 0)
(-0.00203599 -0.0010893 0)
(-0.00157972 -0.000947981 0)
(-0.00118044 -0.000803874 0)
(-0.000838783 -0.000658886 0)
(-0.0005546 -0.000515222 0)
(-0.000326817 -0.000375472 0)
(-0.000153327 -0.000242698 0)
(-3.08629e-05 -0.000120569 0)
(4.5161e-05 -1.35035e-05 0)
(8.08112e-05 7.31573e-05 0)
(8.37138e-05 0.000132982 0)
(6.31988e-05 0.000158355 0)
(3.20095e-05 0.000140469 0)
(7.82582e-06 6.89241e-05 0)
(-5.64011e-07 -4.13171e-05 0)
(-2.04689e-05 -2.04043e-05 0)
(-8.17816e-05 7.18713e-05 0)
(-0.000191723 0.000212371 0)
(-0.000356574 0.000384332 0)
(-0.000580971 0.00057489 0)
(-0.000867445 0.000774304 0)
(-0.00121681 0.000975357 0)
(-0.00162853 0.00117278 0)
(-0.00210094 0.0013628 0)
(-0.00263157 0.00154278 0)
(-0.00321725 0.00171096 0)
(-0.00385439 0.0018662 0)
(-0.00453905 0.00200789 0)
(-0.00526712 0.00213576 0)
(-0.00603435 0.00224981 0)
(-0.00683648 0.00235023 0)
(-0.00766927 0.00243733 0)
(-0.00852851 0.00251154 0)
(-0.00941012 0.00257329 0)
(-0.0103101 0.00262308 0)
(-0.0112246 0.00266138 0)
(-0.0121498 0.00268867 0)
(-0.0130821 0.00270537 0)
(-0.014018 0.00271191 0)
(-0.0149541 0.00270865 0)
(-0.015887 0.00269592 0)
(-0.0168136 0.002674 0)
(-0.0177307 0.00264315 0)
(-0.0186353 0.00260357 0)
(-0.0195243 0.00255542 0)
(-0.0203948 0.00249884 0)
(-0.0212439 0.00243395 0)
(-0.0220687 0.00236084 0)
(-0.0228663 0.00227957 0)
(-0.0236341 0.00219023 0)
(-0.0243692 0.00209287 0)
(-0.0250688 0.00198757 0)
(-0.0257303 0.00187441 0)
(-0.0263511 0.0017535 0)
(-0.0269284 0.00162495 0)
(-0.0274599 0.00148895 0)
(-0.0279429 0.00134567 0)
(-0.0283752 0.00119538 0)
(-0.0287544 0.00103836 0)
(-0.0290785 0.000874968 0)
(-0.0293453 0.000705605 0)
(-0.029553 0.000530741 0)
(-0.0296999 0.000350911 0)
(-0.0297845 0.000166715 0)
(-0.0298057 -2.11805e-05 0)
(-0.0297622 -0.000212043 0)
(-0.0296533 -0.000405073 0)
(-0.0294787 -0.000599408 0)
(-0.0292379 -0.000794123 0)
(-0.0289312 -0.000988241 0)
(-0.0285591 -0.00118073 0)
(-0.0281223 -0.00137052 0)
(-0.0276219 -0.00155648 0)
(-0.0270596 -0.0017375 0)
(-0.0264372 -0.00191239 0)
(-0.0257569 -0.00208 0)
(-0.0250215 -0.00223916 0)
(-0.0242341 -0.0023887 0)
(-0.0233979 -0.0025275 0)
(-0.0225168 -0.00265445 0)
(-0.0215948 -0.00276852 0)
(-0.0206365 -0.00286872 0)
(-0.0196466 -0.00295413 0)
(-0.0186301 -0.00302394 0)
(-0.0175922 -0.0030774 0)
(-0.0165385 -0.0031139 0)
(-0.0154747 -0.00313293 0)
(-0.0144064 -0.00313411 0)
(-0.0133397 -0.00311721 0)
(-0.0122806 -0.00308212 0)
(-0.0112348 -0.00302888 0)
(-0.0102084 -0.00295772 0)
(-0.00920726 -0.00286897 0)
(-0.0082369 -0.00276318 0)
(-0.00730283 -0.00264103 0)
(-0.00641024 -0.00250339 0)
(-0.00556399 -0.00235129 0)
(-0.00476856 -0.00218597 0)
(-0.00402799 -0.00200882 0)
(-0.00334581 -0.00182149 0)
(-0.00272497 -0.0016258 0)
(-0.00216777 -0.00142386 0)
(-0.00167579 -0.00121806 0)
(-0.00124978 -0.0010111 0)
(-0.000889608 -0.000806117 0)
(-0.000594132 -0.000606717 0)
(-0.000361099 -0.000417107 0)
(-0.000187034 -0.000242226 0)
(-6.71051e-05 -8.79064e-05 0)
(5.00435e-06 3.89441e-05 0)
(3.7175e-05 0.000130139 0)
(3.89955e-05 0.000176066 0)
(2.31121e-05 0.000165512 0)
(6.29686e-06 8.46087e-05 0)
(-3.82132e-06 -2.72572e-05 0)
(-3.96053e-05 3.38458e-05 0)
(-0.000132861 0.000175851 0)
(-0.000286547 0.000373239 0)
(-0.000504781 0.000607096 0)
(-0.000791207 0.00086262 0)
(-0.00114759 0.00112837 0)
(-0.00157416 0.00139569 0)
(-0.0020699 0.00165812 0)
(-0.0026328 0.00191091 0)
(-0.00326002 0.00215069 0)
(-0.00394809 0.00237512 0)
(-0.00469306 0.00258268 0)
(-0.00549063 0.00277246 0)
(-0.0063363 0.00294404 0)
(-0.00722544 0.00309732 0)
(-0.00815336 0.00323249 0)
(-0.00911536 0.00334989 0)
(-0.0101068 0.00345 0)
(-0.0111231 0.00353337 0)
(-0.0121599 0.00360059 0)
(-0.0132128 0.00365225 0)
(-0.0142775 0.00368896 0)
(-0.0153499 0.00371126 0)
(-0.0164261 0.00371969 0)
(-0.0175022 0.00371472 0)
(-0.0185744 0.00369677 0)
(-0.0196391 0.00366623 0)
(-0.0206926 0.00362341 0)
(-0.0217314 0.00356859 0)
(-0.0227522 0.00350201 0)
(-0.0237515 0.00342385 0)
(-0.0247259 0.00333426 0)
(-0.0256722 0.00323338 0)
(-0.0265872 0.00312132 0)
(-0.0274676 0.00299819 0)
(-0.0283102 0.00286408 0)
(-0.029112 0.00271912 0)
(-0.0298699 0.00256342 0)
(-0.0305807 0.00239716 0)
(-0.0312417 0.00222051 0)
(-0.0318498 0.00203372 0)
(-0.0324024 0.00183707 0)
(-0.0328966 0.00163092 0)
(-0.03333 0.00141567 0)
(-0.0337 0.00119182 0)
(-0.0340045 0.000959938 0)
(-0.0342413 0.000720665 0)
(-0.0344086 0.000474739 0)
(-0.0345046 0.000222982 0)
(-0.034528 -3.36929e-05 0)
(-0.0344777 -0.000294286 0)
(-0.0343527 -0.00055771 0)
(-0.0341525 -0.000822792 0)
(-0.0338771 -0.00108828 0)
(-0.0335264 -0.00135285 0)
(-0.0331012 -0.00161511 0)
(-0.0326022 -0.00187361 0)
(-0.0320308 -0.00212684 0)
(-0.0313888 -0.00237328 0)
(-0.0306784 -0.00261136 0)
(-0.029902 -0.0028395 0)
(-0.0290629 -0.00305614 0)
(-0.0281643 -0.00325972 0)
(-0.0272101 -0.00344872 0)
(-0.0262046 -0.00362168 0)
(-0.0251525 -0.00377719 0)
(-0.0240587 -0.00391392 0)
(-0.0229285 -0.00403067 0)
(-0.0217677 -0.00412631 0)
(-0.0205821 -0.00419988 0)
(-0.019378 -0.00425055 0)
(-0.0181616 -0.00427763 0)
(-0.0169397 -0.00428064 0)
(-0.0157186 -0.00425923 0)
(-0.0145053 -0.0042133 0)
(-0.0133063 -0.00414292 0)
(-0.0121283 -0.00404835 0)
(-0.0109778 -0.00393011 0)
(-0.00986121 -0.00378891 0)
(-0.00878462 -0.00362569 0)
(-0.00775385 -0.00344163 0)
(-0.00677436 -0.00323815 0)
(-0.00585119 -0.00301691 0)
(-0.00498886 -0.00277983 0)
(-0.00419133 -0.00252912 0)
(-0.00346192 -0.00226727 0)
(-0.00280322 -0.00199711 0)
(-0.00221703 -0.00172182 0)
(-0.00170426 -0.00144502 0)
(-0.00126487 -0.00117084 0)
(-0.000897726 -0.000903954 0)
(-0.00060056 -0.000649778 0)
(-0.000369842 -0.00041455 0)
(-0.000200683 -0.000205519 0)
(-8.67331e-05 -3.11398e-05 0)
(-2.01036e-05 9.87024e-05 0)
(8.76589e-06 0.000172496 0)
(1.19282e-05 0.000176822 0)
(4.39587e-06 9.49368e-05 0)
(-7.05558e-06 -3.14678e-06 0)
(-5.91328e-05 0.000114032 0)
(-0.000185574 0.000318724 0)
(-0.000384861 0.000583872 0)
(-0.000658693 0.000888985 0)
(-0.00100949 0.00121773 0)
(-0.00143803 0.00155727 0)
(-0.00194374 0.00189768 0)
(-0.00252502 0.00223145 0)
(-0.00317935 0.00255296 0)
(-0.00390349 0.00285811 0)
(-0.00469358 0.00314402 0)
(-0.00554532 0.00340877 0)
(-0.00645406 0.00365117 0)
(-0.00741494 0.00387061 0)
(-0.00842296 0.00406689 0)
(-0.00947306 0.00424017 0)
(-0.0105602 0.00439081 0)
(-0.0116792 0.00451935 0)
(-0.0128253 0.00462642 0)
(-0.0139934 0.00471271 0)
(-0.0151789 0.00477895 0)
(-0.0163772 0.00482583 0)
(-0.0175836 0.00485404 0)
(-0.0187938 0.00486423 0)
(-0.0200035 0.00485697 0)
(-0.0212084 0.0048328 0)
(-0.0224046 0.00479219 0)
(-0.023588 0.00473553 0)
(-0.0247546 0.00466319 0)
(-0.0259006 0.00457545 0)
(-0.0270223 0.00447256 0)
(-0.0281159 0.00435473 0)
(-0.0291777 0.00422214 0)
(-0.0302041 0.00407494 0)
(-0.0311915 0.00391329 0)
(-0.0321364 0.00373733 0)
(-0.0330352 0.00354722 0)
(-0.0338846 0.00334315 0)
(-0.0346811 0.00312534 0)
(-0.0354216 0.00289406 0)
(-0.0361027 0.00264963 0)
(-0.0367214 0.00239245 0)
(-0.0372747 0.00212299 0)
(-0.0377598 0.00184179 0)
(-0.0381739 0.00154952 0)
(-0.0385147 0.00124691 0)
(-0.0387796 0.000934829 0)
(-0.0389668 0.000614227 0)
(-0.0390744 0.000286184 0)
(-0.0391008 -4.81137e-05 0)
(-0.0390447 -0.000387366 0)
(-0.0389054 -0.000730162 0)
(-0.0386822 -0.00107499 0)
(-0.0383749 -0.00142022 0)
(-0.0379837 -0.00176415 0)
(-0.0375093 -0.00210498 0)
(-0.0369527 -0.00244086 0)
(-0.0363153 -0.00276983 0)
(-0.0355991 -0.00308994 0)
(-0.0348066 -0.00339917 0)
(-0.0339405 -0.00369551 0)
(-0.0330042 -0.00397694 0)
(-0.0320016 -0.00424147 0)
(-0.0309368 -0.00448715 0)
(-0.0298145 -0.00471209 0)
(-0.02864 -0.00491451 0)
(-0.0274185 -0.00509271 0)
(-0.0261562 -0.00524513 0)
(-0.0248591 -0.00537035 0)
(-0.0235338 -0.00546712 0)
(-0.0221872 -0.00553438 0)
(-0.0208261 -0.00557127 0)
(-0.0194579 -0.00557715 0)
(-0.0180898 -0.00555161 0)
(-0.0167291 -0.0054945 0)
(-0.0153834 -0.00540591 0)
(-0.0140597 -0.00528622 0)
(-0.0127655 -0.00513607 0)
(-0.0115076 -0.00495639 0)
(-0.0102928 -0.00474842 0)
(-0.00912746 -0.00451366 0)
(-0.00801768 -0.00425397 0)
(-0.00696898 -0.00397149 0)
(-0.00598635 -0.0036687 0)
(-0.00507417 -0.00334844 0)
(-0.00423613 -0.00301393 0)
(-0.00347513 -0.00266876 0)
(-0.00279321 -0.00231701 0)
(-0.00219151 -0.00196326 0)
(-0.00167011 -0.00161265 0)
(-0.001228 -0.00127102 0)
(-0.000863006 -0.000944978 0)
(-0.000571664 -0.000642086 0)
(-0.000349184 -0.000370987 0)
(-0.000189358 -0.000141628 0)
(-8.44866e-05 3.45011e-05 0)
(-2.52649e-05 0.000144152 0)
(-5.7843e-07 0.000171994 0)
(2.32204e-06 9.90432e-05 0)
(-1.02049e-05 3.10145e-05 0)
(-7.85952e-05 0.000220641 0)
(-0.000238664 0.000501514 0)
(-0.000484416 0.000845722 0)
(-0.000815023 0.0012317 0)
(-0.00123153 0.00164199 0)
(-0.00173358 0.00206263 0)
(-0.00231965 0.0024827 0)
(-0.00298741 0.00289376 0)
(-0.00373376 0.00328942 0)
(-0.00455493 0.00366495 0)
(-0.00544665 0.00401698 0)
(-0.00640423 0.00434319 0)
(-0.00742267 0.00464212 0)
(-0.00849675 0.00491298 0)
(-0.00962112 0.00515548 0)
(-0.0107904 0.00536971 0)
(-0.0119991 0.00555607 0)
(-0.0132418 0.00571513 0)
(-0.0145133 0.00584762 0)
(-0.0158083 0.00595431 0)
(-0.0171216 0.00603605 0)
(-0.0184483 0.00609364 0)
(-0.0197834 0.0061279 0)
(-0.0211221 0.00613958 0)
(-0.0224598 0.00612938 0)
(-0.0237919 0.00609792 0)
(-0.0251139 0.00604577 0)
(-0.0264214 0.00597342 0)
(-0.0277102 0.0058813 0)
(-0.028976 0.00576977 0)
(-0.0302146 0.00563914 0)
(-0.0314221 0.00548968 0)
(-0.0325942 0.00532161 0)
(-0.0337271 0.00513514 0)
(-0.0348167 0.00493047 0)
(-0.0358593 0.0047078 0)
(-0.036851 0.00446736 0)
(-0.037788 0.00420938 0)
(-0.0386666 0.00393418 0)
(-0.0394833 0.0036421 0)
(-0.0402345 0.00333358 0)
(-0.0409169 0.00300911 0)
(-0.0415271 0.00266932 0)
(-0.0420622 0.0023149 0)
(-0.0425192 0.0019467 0)
(-0.0428953 0.00156565 0)
(-0.0431881 0.00117284 0)
(-0.0433954 0.00076949 0)
(-0.043515 0.000356945 0)
(-0.0435455 -6.33016e-05 0)
(-0.0434854 -0.000489622 0)
(-0.0433338 -0.000920251 0)
(-0.04309 -0.00135329 0)
(-0.0427538 -0.00178674 0)
(-0.0423256 -0.00221844 0)
(-0.0418059 -0.00264618 0)
(-0.0411959 -0.00306763 0)
(-0.0404972 -0.00348038 0)
(-0.039712 -0.003882 0)
(-0.0388427 -0.00426999 0)
(-0.0378927 -0.00464184 0)
(-0.0368653 -0.00499506 0)
(-0.0357649 -0.00532718 0)
(-0.0345959 -0.00563578 0)
(-0.0333635 -0.00591853 0)
(-0.0320732 -0.00617322 0)
(-0.0307309 -0.00639773 0)
(-0.0293431 -0.00659015 0)
(-0.0279165 -0.0067487 0)
(-0.0264581 -0.00687186 0)
(-0.0249754 -0.00695829 0)
(-0.023476 -0.00700694 0)
(-0.0219675 -0.00701702 0)
(-0.0204581 -0.00698802 0)
(-0.0189556 -0.00691975 0)
(-0.017468 -0.00681235 0)
(-0.0160034 -0.00666627 0)
(-0.0145695 -0.00648232 0)
(-0.0131739 -0.00626166 0)
(-0.0118239 -0.00600584 0)
(-0.0105266 -0.00571674 0)
(-0.00928843 -0.00539665 0)
(-0.00811552 -0.00504827 0)
(-0.00701331 -0.00467466 0)
(-0.0059866 -0.00427936 0)
(-0.00503946 -0.00386633 0)
(-0.00417512 -0.00344003 0)
(-0.00339593 -0.00300544 0)
(-0.00270326 -0.00256813 0)
(-0.00209741 -0.00213434 0)
(-0.00157758 -0.00171105 0)
(-0.00114175 -0.0013061 0)
(-0.000786673 -0.000928352 0)
(-0.000507762 -0.000587802 0)
(-0.000299092 -0.000295822 0)
(-0.000153304 -6.53861e-05 0)
(-6.1518e-05 8.87156e-05 0)
(-1.37665e-05 0.000149553 0)
(1.93498e-07 9.64775e-05 0)
(-1.32423e-05 7.50709e-05 0)
(-9.77363e-05 0.000353655 0)
(-0.000291357 0.000724511 0)
(-0.000583743 0.00115939 0)
(-0.000971539 0.00163607 0)
(-0.00145434 0.00213633 0)
(-0.00203053 0.00264539 0)
(-0.00269757 0.00315152 0)
(-0.00345225 0.00364557 0)
(-0.0042908 0.00412049 0)
(-0.0052089 0.00457102 0)
(-0.00620178 0.00499335 0)
(-0.00726432 0.00538482 0)
(-0.00839115 0.00574371 0)
(-0.00957669 0.00606908 0)
(-0.0108152 0.00636054 0)
(-0.0121011 0.00661814 0)
(-0.0134284 0.00684229 0)
(-0.0147916 0.00703362 0)
(-0.0161849 0.0071929 0)
(-0.0176027 0.00732104 0)
(-0.0190397 0.00741896 0)
(-0.0204904 0.00748759 0)
(-0.0219496 0.00752787 0)
(-0.0234122 0.00754065 0)
(-0.0248731 0.00752674 0)
(-0.0263274 0.00748688 0)
(-0.0277704 0.00742173 0)
(-0.0291973 0.00733186 0)
(-0.0306034 0.00721778 0)
(-0.0319842 0.00707992 0)
(-0.0333352 0.00691865 0)
(-0.034652 0.0067343 0)
(-0.0359301 0.00652716 0)
(-0.0371653 0.00629749 0)
(-0.0383534 0.00604555 0)
(-0.03949 0.00577158 0)
(-0.0405711 0.00547589 0)
(-0.0415926 0.00515879 0)
(-0.0425504 0.00482066 0)
(-0.0434409 0.00446196 0)
(-0.04426 0.00408324 0)
(-0.0450043 0.00368512 0)
(-0.0456701 0.00326837 0)
(-0.0462542 0.00283387 0)
(-0.0467534 0.00238264 0)
(-0.0471648 0.00191587 0)
(-0.0474856 0.00143487 0)
(-0.0477136 0.000941144 0)
(-0.0478464 0.000436332 0)
(-0.0478824 -7.77425e-05 0)
(-0.0478201 -0.000599094 0)
(-0.0476585 -0.00112558 0)
(-0.0473969 -0.00165489 0)
(-0.047035 -0.00218458 0)
(-0.0465732 -0.00271207 0)
(-0.0460121 -0.00323466 0)
(-0.0453529 -0.00374952 0)
(-0.0445974 -0.00425376 0)
(-0.0437478 -0.00474442 0)
(-0.0428069 -0.00521848 0)
(-0.041778 -0.00567292 0)
(-0.0406651 -0.00610472 0)
(-0.0394724 -0.00651091 0)
(-0.0382048 -0.00688855 0)
(-0.036868 -0.00723485 0)
(-0.0354677 -0.00754711 0)
(-0.0340103 -0.0078228 0)
(-0.0325027 -0.00805958 0)
(-0.0309521 -0.00825534 0)
(-0.0293661 -0.0084082 0)
(-0.0277525 -0.00851658 0)
(-0.0261197 -0.00857918 0)
(-0.0244758 -0.00859505 0)
(-0.0228294 -0.00856359 0)
(-0.0211891 -0.00848456 0)
(-0.0195635 -0.00835811 0)
(-0.0179612 -0.00818481 0)
(-0.0163905 -0.00796563 0)
(-0.0148596 -0.00770198 0)
(-0.0133764 -0.00739572 0)
(-0.0119486 -0.00704915 0)
(-0.0105831 -0.00666504 0)
(-0.00928648 -0.00624662 0)
(-0.00806474 -0.00579763 0)
(-0.00692308 -0.0053223 0)
(-0.00586597 -0.00482541 0)
(-0.00489703 -0.00431229 0)
(-0.00401893 -0.00378887 0)
(-0.00323334 -0.00326178 0)
(-0.00254085 -0.00273832 0)
(-0.00194092 -0.00222666 0)
(-0.00143181 -0.00173587 0)
(-0.00101054 -0.00127606 0)
(-0.000672841 -0.000858552 0)
(-0.000413186 -0.000496065 0)
(-0.000224658 -0.000202921 0)
(-9.89085e-05 4.73784e-06 0)
(-2.72202e-05 0.000108679 0)
(-1.92204e-06 8.70537e-05 0)
(-1.61583e-05 0.000128782 0)
(-0.000116421 0.000512756 0)
(-0.000343187 0.000987521 0)
(-0.000681912 0.00152486 0)
(-0.00112676 0.00210227 0)
(-0.00167585 0.00270104 0)
(-0.00232627 0.00330586 0)
(-0.00307434 0.00390442 0)
(-0.00391597 0.004487 0)
(-0.0048466 0.00504608 0)
(-0.00586128 0.00557594 0)
(-0.00695472 0.00607242 0)
(-0.00812133 0.00653258 0)
(-0.00935532 0.0069545 0)
(-0.0106508 0.00733709 0)
(-0.0120016 0.00767988 0)
(-0.0134018 0.00798291 0)
(-0.0148452 0.00824659 0)
(-0.0163259 0.00847159 0)
(-0.0178379 0.00865879 0)
(-0.0193753 0.00880915 0)
(-0.0209323 0.00892373 0)
(-0.0225033 0.00900356 0)
(-0.0240827 0.00904968 0)
(-0.0256651 0.00906307 0)
(-0.0272452 0.00904465 0)
(-0.0288177 0.00899524 0)
(-0.0303775 0.00891561 0)
(-0.0319196 0.00880642 0)
(-0.033439 0.00866825 0)
(-0.0349308 0.0085016 0)
(-0.0363903 0.00830693 0)
(-0.0378127 0.00808461 0)
(-0.0391933 0.00783499 0)
(-0.0405275 0.00755839 0)
(-0.0418108 0.00725513 0)
(-0.0430385 0.00692552 0)
(-0.0442064 0.00656994 0)
(-0.04531 0.00618878 0)
(-0.0463451 0.00578252 0)
(-0.0473075 0.00535171 0)
(-0.0481932 0.00489702 0)
(-0.0489983 0.00441923 0)
(-0.049719 0.00391927 0)
(-0.0503517 0.0033982 0)
(-0.0508931 0.00285727 0)
(-0.0513401 0.00229788 0)
(-0.0516897 0.00172162 0)
(-0.0519395 0.00113028 0)
(-0.052087 0.000525832 0)
(-0.0521305 -8.95553e-05 0)
(-0.0520683 -0.000713517 0)
(-0.0518993 -0.0013435 0)
(-0.0516227 -0.00197677 0)
(-0.0512384 -0.00261042 0)
(-0.0507465 -0.00324138 0)
(-0.0501478 -0.00386645 0)
(-0.0494435 -0.00448229 0)
(-0.0486355 -0.00508547 0)
(-0.047726 -0.00567248 0)
(-0.0467181 -0.00623975 0)
(-0.0456153 -0.0067837 0)