/*--------------------------------*- C++ -*----------------------------------*\
| =========                 |                                                 |
| \\      /  F ield         | OpenFOAM: The Open Source CFD Toolbox           |
|  \\    /   O peration     | Version:  2512                                  |
|   \\  /    A nd           | Website:  www.openfoam.com                      |
|    \\/     M anipulation  |                                                 |
\*---------------------------------------------------------------------------*/
FoamFile
{
    version     2.0;
    format      ascii;
    arch        "LSB;label=32;scalar=64";
    class       volScalarField;
    location    "0.1";
    object      p;
}
// * * * * * * * * * * * * * * * * * * * * * * * * * * * * * * * * * * * * * //

dimensions      [0 2 -2 0 0 0 0];

internalField   nonuniform List<scalar> 
10000
(
-1.41274e-10
-2.91568e-05
-9.39616e-05
-0.000178437
-0.000271129
-0.000368767
-0.000467563
-0.000564184
-0.000655887
-0.000740435
-0.000816098
-0.000881518
-0.000935593
-0.000977461
-0.00100653
-0.00102246
-0.00102506
-0.0010142
-0.000989866
-0.000952111
-0.000901046
-0.000836829
-0.000759681
-0.000669881
-0.000567717
-0.000453443
-0.0003273
-0.000189559
-4.05348e-05
0.000119443
0.000290071
0.000471081
0.000662209
0.000863158
0.0010736
0.00129321
0.00152164
0.0017586
0.00200373
0.00225669
0.00251705
0.00278442
0.00305837
0.00333848
0.0036243
0.00391533
0.00421105
0.00451094
0.00481448
0.00512112
0.00543029
0.0057414
0.00605384
0.00636699
0.0066802
0.00699284
0.00730425
0.00761377
0.00792069
0.00822429
0.00852386
0.00881867
0.00910798
0.00939107
0.00966721
0.00993563
0.0101956
0.0104464
0.0106872
0.0109173
0.011136
0.0113428
0.0115368
0.0117175
0.0118843
0.0120366
0.0121739
0.0122958
0.0124018
0.0124918
0.0125654
0.0126227
0.0126635
0.012688
0.0126964
0.012689
0.0126665
0.0126296
0.0125794
0.0125172
0.0124444
0.0123633
0.0122761
0.0121859
0.0120964
0.012012
0.011938
0.0118809
0.011848
0.0118423
-1.69429e-05
-4.45488e-05
-9.78306e-05
-0.000166778
-0.000244122
-0.000326087
-0.000409553
-0.000491681
-0.00056997
-0.000642336
-0.000707098
-0.000762917
-0.000808705
-0.000843579
-0.000866873
-0.000878121
-0.000877016
-0.000863372
-0.00083711
-0.00079824
-0.000746802
-0.000682875
-0.000606604
-0.000518199
-0.000417892
-0.00030591
-0.000182474
-4.78189e-05
9.77872e-05
0.00025406
0.000420729
0.000597531
0.000784191
0.000980419
0.00118592
0.0014004
0.00162353
0.00185499
0.00209444
0.0023415
0.0025958
0.00285694
0.00312452
0.00339809
0.0036772
0.00396136
0.00425008
0.00454283
0.00483911
0.00513836
0.00544003
0.00574353
0.00604827
0.00635363
0.00665899
0.00696373
0.00726721
0.00756876
0.00786771
0.00816335
0.00845498
0.0087419
0.00902341
0.0092988
0.00956737
0.00982838
0.0100811
0.0103249
0.0105589
0.0107826
0.0109953
0.0111963
0.0113851
0.011561
0.0117235
0.0118721
0.0120064
0.012126
0.0122305
0.0123197
0.0123936
0.012452
0.012495
0.0125228
0.0125356
0.0125339
0.0125183
0.0124897
0.012449
0.0123976
0.0123371
0.0122694
0.0121966
0.0121217
0.0120477
0.0119783
0.0119177
0.0118705
0.0118423
0.0118366
-1.84179e-05
-4.36453e-05
-8.84546e-05
-0.000147477
-0.000214702
-0.000286354
-0.000359501
-0.000431575
-0.000500348
-0.000563898
-0.000620608
-0.000669181
-0.000708581
-0.000737959
-0.000756645
-0.000764115
-0.000759987
-0.000744026
-0.000716116
-0.000676217
-0.000624332
-0.000560501
-0.000484825
-0.000397456
-0.000298563
-0.000188336
-6.6991e-05
6.52422e-05
0.00020813
0.000361443
0.000524945
0.000698379
0.000881458
0.00107389
0.00127541
0.00148575
0.00170459
0.00193161
0.00216645
0.00240874
0.00265812
0.00291422
0.00317663
0.00344491
0.0037186
0.0039972
0.00428024
0.00456723
0.00485765
0.00515098
0.00544663
0.00574404
0.00604262
0.00634177
0.0066409
0.00693938
0.00723658
0.00753184
0.0078245
0.00811387
0.00839927
0.00868002
0.00895542
0.0092248
0.00948746
0.00974271
0.00998983
0.0102281
0.010457
0.0106757
0.0108836
0.0110802
0.0112649
0.0114372
0.0115965
0.0117423
0.0118743
0.0119922
0.0120956
0.0121844
0.0122585
0.0123179
0.0123626
0.012393
0.0124092
0.0124119
0.0124015
0.012379
0.0123454
0.0123019
0.0122501
0.0121917
0.0121288
0.0120638
0.0119994
0.0119388
0.0118853
0.0118424
0.0118143
0.011804
5.29621e-06
-2.33081e-05
-6.62299e-05
-0.000120403
-0.000181909
-0.000247305
-0.000313785
-0.000379039
-0.000441104
-0.00049825
-0.000548983
-0.000592067
-0.000626502
-0.000651497
-0.000666416
-0.000670738
-0.000664064
-0.00064614
-0.000616811
-0.000575976
-0.000523605
-0.000459741
-0.000384468
-0.000297888
-0.000200116
-9.13031e-05
2.83503e-05
0.000158618
0.000299282
0.000450145
0.000611004
0.000781617
0.000961702
0.00115097
0.00134917
0.00155602
0.00177125
0.00199451
0.00222547
0.00246375
0.00270899
0.00296082
0.00321886
0.00348267
0.00375178
0.00402571
0.00430398
0.00458613
0.00487165
0.00516002
0.00545067
0.00574302
0.0060365
0.00633053
0.00662453
0.00691788
0.00720995
0.00750009
0.00778763
0.00807191
0.00835226
0.00862802
0.00889851
0.00916306
0.00942098
0.0096716
0.00991422
0.0101482
0.0103728
0.0105876
0.0107918
0.0109849
0.0111664
0.0113358
0.0114926
0.0116362
0.0117665
0.011883
0.0119856
0.0120741
0.0121485
0.0122087
0.0122549
0.0122873
0.0123062
0.0123122
0.0123058
0.0122879
0.0122595
0.0122217
0.012176
0.012124
0.0120675
0.0120087
0.0119498
0.0118935
0.0118424
0.0117995
0.0117673
0.0117473
5.14063e-05
1.29827e-05
-3.30926e-05
-8.62778e-05
-0.000145115
-0.000206758
-0.000268757
-0.000329096
-0.000386051
-0.000438119
-0.000483995
-0.000522541
-0.000552819
-0.000574085
-0.000585723
-0.00058724
-0.00057827
-0.000558559
-0.000527917
-0.000486208
-0.000433374
-0.000369439
-0.000294472
-0.00020855
-0.000111753
-4.20682e-06
0.00011391
0.000242401
0.000381072
0.000529739
0.000688201
0.000856229
0.00103356
0.00121994
0.0014151
0.00161879
0.0018307
0.00205052
0.00227789
0.00251248
0.00275393
0.00300185
0.00325588
0.00351557
0.00378047
0.00405012
0.00432404
0.00460178
0.00488284
0.00516671
0.00545282
0.00574061
0.00602951
0.00631895
0.00660836
0.00689713
0.00718464
0.00747023
0.00775324
0.00803303
0.00830893
0.0085803
0.00884648
0.0091068
0.00936058
0.00960715
0.00984584
0.010076
0.0102971
0.0105083
0.0107093
0.0108995
0.0110782
0.0112451
0.0113997
0.0115416
0.0116703
0.0117858
0.0118877
0.011976
0.0120506
0.0121116
0.012159
0.0121931
0.0122143
0.012223
0.0122199
0.0122057
0.0121815
0.0121481
0.0121071
0.0120598
0.0120078
0.0119529
0.0118971
0.0118426
0.0117914
0.011746
0.0117068
0.011674
0.00011141
6.04076e-05
8.09428e-06
-4.70185e-05
-0.000105682
-0.000165741
-0.000225171
-0.0002823
-0.000335644
-0.000383915
-0.00042599
-0.000460888
-0.000487772
-0.000505942
-0.000514817
-0.000513944
-0.000502987
-0.000481691
-0.000449853
-0.000407338
-0.000354087
-0.000290091
-0.000215378
-0.000129998
-3.40319e-05
7.23961e-05
0.000189132
0.000316023
0.000452913
0.000599621
0.000755941
0.000921643
0.00109649
0.00128025
0.00147268
0.0016735
0.00188243
0.00209911
0.00232324
0.00255448
0.00279249
0.00303689
0.00328728
0.00354325
0.00380434
0.00407012
0.00434014
0.00461393
0.00489101
0.00517087
0.00545294
0.00573668
0.00602153
0.00630695
0.00659235
0.00687712
0.00716065
0.00744228
0.00772137
0.00799727
0.00826935
0.00853695
0.00879943
0.00905613
0.00930637
0.00954949
0.00978485
0.0100118
0.0102298
0.0104382
0.0106365
0.0108241
0.0110006
0.0111654
0.0113182
0.0114585
0.0115861
0.0117007
0.0118021
0.0118902
0.011965
0.0120266
0.012075
0.0121105
0.0121336
0.0121445
0.012144
0.0121327
0.0121115
0.0120815
0.0120437
0.0119996
0.0119504
0.0118977
0.0118431
0.0117882
0.011735
0.0116851
0.0116374
0.01159
0.000179241
0.000114544
5.42449e-05
-4.7872e-06
-6.52641e-05
-0.000125566
-0.000184059
-0.000239452
-0.000290537
-0.000336215
-0.00037553
-0.000407662
-0.000431884
-0.000447559
-0.00045418
-0.000451351
-0.000438746
-0.0004161
-0.000383222
-0.00034
-0.000286376
-0.000222321
-0.000147824
-6.2912e-05
3.23344e-05
0.000137791
0.000253324
0.000378813
0.000514128
0.000659098
0.000813518
0.000977165
0.00114982
0.00133125
0.00152125
0.00171953
0.00192579
0.0021397
0.00236094
0.00258921
0.00282416
0.00306542
0.00331259
0.00356526
0.00382299
0.00408537
0.00435195
0.00462229
0.00489591
0.00517227
0.00545085
0.0057311
0.00601248
0.00629445
0.00657644
0.00685783
0.00713798
0.00741628
0.00769207
0.00796473
0.00823362
0.0084981
0.00875752
0.00901123
0.00925855
0.00949885
0.00973148
0.00995584
0.0101713
0.0103774
0.0105735
0.0107591
0.0109337
0.0110969
0.0112483
0.0113874
0.0115141
0.011628
0.011729
0.011817
0.011892
0.0119541
0.0120033
0.01204
0.0120644
0.012077
0.0120783
0.0120691
0.0120501
0.0120223
0.0119866
0.0119442
0.0118963
0.0118441
0.0117891
0.0117324
0.0116755
0.01162
0.0115627
0.0115003
0.000250068
0.000171491
0.000102394
3.82031e-05
-2.54953e-05
-8.74466e-05
-0.000146325
-0.000201189
-0.000251118
-0.000295218
-0.000332698
-0.000362864
-0.000385092
-0.000398847
-0.000403699
-0.0003993
-0.000385347
-0.000361592
-0.000327863
-0.000284057
-0.000230116
-0.000165995
-9.1673e-05
-7.17391e-06
8.74283e-05
0.00019203
0.000306525
0.000430807
0.000564751
0.000708188
0.000860926
0.00102277
0.0011935
0.00137291
0.00156077
0.0017568
0.0019607
0.00217216
0.00239088
0.00261655
0.00284882
0.00308733
0.00333168
0.00358147
0.00383629
0.00409573
0.00435936
0.00462675
0.0048974
0.00517079
0.00544641
0.00572373
0.00600221
0.00628132
0.00656048
0.00683907
0.00711647
0.00739203
0.00766514
0.00793517
0.0082015
0.00846348
0.00872046
0.00897178
0.0092168
0.00945487
0.00968537
0.0099077
0.0101213
0.0103255
0.01052
0.010704
0.0108773
0.0110392
0.0111895
0.0113278
0.0114537
0.0115672
0.0116679
0.0117559
0.0118311
0.0118935
0.0119434
0.0119809
0.0120062
0.01202
0.0120226
0.0120147
0.0119971
0.0119704
0.0119357
0.011894
0.0118461
0.0117933
0.0117365
0.0116767
0.0116153
0.0115532
0.011486
0.0114089
0.000320134
0.000228029
0.000149845
7.97913e-05
1.1979e-05
-5.26288e-05
-0.000112924
-0.000168244
-0.000217926
-0.000261294
-0.000297709
-0.000326589
-0.000347428
-0.000359799
-0.000363336
-0.000357723
-0.000342697
-0.000318056
-0.000283657
-0.0002394
-0.000185207
-0.000121028
-4.68508e-05
3.72855e-05
0.000131317
0.000235171
0.000348771
0.000472018
0.000604777
0.000746881
0.000898153
0.00105842
0.00122749
0.00140514
0.00159115
0.00178522
0.00198707
0.0021964
0.00241294
0.00263637
0.00286634
0.00310248
0.00334441
0.00359175
0.00384411
0.00410108
0.00436225
0.00462716
0.00489535
0.0051663
0.0054395
0.00571444
0.00599059
0.00626741
0.00654431
0.00682069
0.00709591
0.00736934
0.00764037
0.00790838
0.00817275
0.00843282
0.00868796
0.0089375
0.0091808
0.00941723
0.00964618
0.00986704
0.0100792
0.0102822
0.0104755
0.0106585
0.0108308
0.0109919
0.0111415
0.0112792
0.0114047
0.0115178
0.0116184
0.0117064
0.0117817
0.0118445
0.0118948
0.0119328
0.0119588
0.0119732
0.0119765
0.0119693
0.0119523
0.011926
0.0118915
0.0118494
0.0118006
0.0117461
0.0116867
0.011623
0.0115562
0.0114872
0.0114101
0.0113191
0.000386572
0.000281536
0.000194284
0.000118012
4.55448e-05
-2.23928e-05
-8.48584e-05
-0.000141408
-0.0001916
-0.000234938
-0.000270923
-0.0002991
-0.000319086
-0.000330545
-0.000333162
-0.000326662
-0.000310834
-0.000285526
-0.000250621
-0.000206018
-0.000151634
-8.7422e-05
-1.33872e-05
7.04266e-05
0.00016397
0.000267192
0.00038003
0.000502387
0.000634127
0.000775088
0.00092511
0.00108403
0.00125168
0.00142784
0.00161225
0.00180464
0.00200474
0.00221227
0.00242696
0.0026485
0.00287653
0.00311069
0.00335061
0.00359593
0.00384628
0.00410125
0.00436044
0.00462338
0.00488962
0.00515865
0.00542998
0.00570309
0.00597747
0.00625256
0.00652778
0.00680251
0.00707613
0.00734802
0.00761757
0.00788415
0.00814714
0.00840591
0.00865979
0.00890813
0.0091503
0.00938566
0.00961361
0.00983355
0.0100449
0.0102471
0.0104397
0.0106221
0.0107939
0.0109545
0.0111037
0.0112411
0.0113664
0.0114794
0.01158
0.0116681
0.0117436
0.0118065
0.011857
0.0118953
0.0119217
0.0119364
0.01194
0.0119329
0.0119158
0.0118893
0.0118541
0.0118109
0.0117604
0.0117035
0.0116407
0.0115725
0.0115001
0.0114241
0.0113374
0.0112332
0.000447087
0.000329862
0.000233782
0.000151155
7.37103e-05
2.01651e-06
-6.31432e-05
-0.000121511
-0.000172803
-0.00021667
-0.00025276
-0.000280747
-0.000300343
-0.000311281
-0.000313311
-0.000306223
-0.000289854
-0.000264087
-0.000228819
-0.000183956
-0.000129431
-6.52193e-05
8.6651e-06
9.21913e-05
0.000185328
0.000288034
0.000400238
0.00052184
0.000652711
0.000792709
0.000941691
0.00109951
0.00126597
0.00144085
0.00162392
0.0018149
0.00201355
0.0022196
0.00243278
0.00265277
0.00287922
0.00311179
0.00335011
0.00359385
0.00384264
0.00409609
0.00435377
0.00461525
0.00488004
0.00514769
0.00541768
0.00568951
0.00596267
0.00623659
0.00651069
0.00678435
0.00705695
0.00732788
0.00759652
0.00786226
0.00812447
0.0083825
0.0086357
0.00888343
0.00912502
0.00935988
0.00958738
0.00980695
0.010018
0.01022
0.0104123
0.0105945
0.0107661
0.0109267
0.0110759
0.0112133
0.0113386
0.0114517
0.0115524
0.0116406
0.0117162
0.0117793
0.0118299
0.0118683
0.0118947
0.0119094
0.0119128
0.0119054
0.0118877
0.0118603
0.0118239
0.011779
0.0117263
0.0116663
0.0115997
0.0115267
0.0114484
0.0113654
0.0112696
0.0111533
0.000499804
0.000371215
0.000266689
0.000177744
9.51687e-05
1.94436e-05
-4.87736e-05
-0.000109378
-0.000162208
-0.000207048
-0.000243689
-0.000271915
-0.000291504
-0.000302252
-0.000303988
-0.000296574
-0.000279895
-0.000253848
-0.00021834
-0.000173299
-0.000118688
-5.4507e-05
1.92314e-05
0.000102513
0.000195321
0.000297607
0.000409292
0.000530272
0.000660429
0.000799642
0.000947783
0.0011047
0.00127019
0.00144403
0.001626
0.00181585
0.00201335
0.00221823
0.00243021
0.00264899
0.00287423
0.00310559
0.00334274
0.00358534
0.00383303
0.00408541
0.00434208
0.00460257
0.00486645
0.00513323
0.00540242
0.00567353
0.00594601
0.00621932
0.00649285
0.006766
0.00703815
0.00730869
0.007577
0.00784248
0.00810448
0.00836236
0.00861546
0.00886312
0.00910472
0.00933962
0.00956723
0.00978694
0.00999817
0.0102004
0.0103929
0.0105754
0.0107473
0.0109082
0.0110576
0.0111953
0.0113209
0.0114342
0.0115352
0.0116235
0.0116993
0.0117625
0.0118132
0.0118515
0.0118777
0.011892
0.0118949
0.0118868
0.0118682
0.0118395
0.0118014
0.0117543
0.0116988
0.0116355
0.0115647
0.0114867
0.0114025
0.0113127
0.0112083
0.0110809
0.000543253
0.000404109
0.000291586
0.000196486
0.000108754
2.8833e-05
-4.2672e-05
-0.000105791
-0.000160489
-0.000206666
-0.000244217
-0.000273011
-0.000292897
-0.000303744
-0.000305453
-0.000297946
-0.00028114
-0.00025495
-0.000219308
-0.000174174
-0.00011954
-5.54117e-05
1.82026e-05
0.000101295
0.000193845
0.000295798
0.000407067
0.000527553
0.000657155
0.000795763
0.00094325
0.00109946
0.00126419
0.00143722
0.00161834
0.00180733
0.00200395
0.00220797
0.00241908
0.002637
0.00286139
0.00309193
0.00332832
0.00357021
0.00381726
0.00406905
0.00432517
0.00458519
0.00484865
0.00511509
0.00538402
0.00565493
0.00592729
0.00620052
0.00647404
0.00674724
0.00701949
0.00729021
0.00755877
0.00782455
0.00808692
0.00834522
0.00859879
0.00884697
0.00908912
0.00932462
0.00955287
0.00977325
0.00998516
0.010188
0.0103813
0.0105645
0.010737
0.0108985
0.0110485
0.0111868
0.0113129
0.0114267
0.011528
0.0116167
0.0116926
0.0117559
0.0118065
0.0118446
0.0118705
0.0118843
0.0118865
0.0118773
0.0118574
0.0118271
0.0117869
0.0117373
0.0116787
0.0116117
0.0115366
0.0114536
0.0113636
0.0112672
0.0111547
0.0110171
0.000576303
0.000427343
0.00030727
0.000206238
0.000113415
2.92461e-05
-4.56758e-05
-0.000111501
-0.000168321
-0.000216116
-0.000254847
-0.00028446
-0.000304892
-0.000316087
-0.000318002
-0.000310593
-0.000293805
-0.000267585
-0.000231904
-0.000186757
-0.00013215
-6.80837e-05
5.43655e-06
8.83953e-05
0.000180756
0.000282456
0.00039341
0.000513534
0.000642739
0.000780915
0.00092793
0.00108362
0.00124779
0.00142023
0.00160075
0.00178915
0.0019852
0.00218864
0.00239921
0.0026166
0.00284052
0.00307065
0.00330669
0.00354831
0.00379516
0.00404682
0.00430288
0.00456291
0.00482646
0.00509308
0.00536227
0.00563351
0.00590627
0.00617997
0.00645402
0.00672781
0.00700074
0.0072722
0.00754158
0.00780824
0.00807155
0.00833084
0.00858544
0.0088347
0.00907796
0.00931462
0.00954403
0.00976559
0.00997869
0.0101827
0.0103772
0.0105614
0.010735
0.0108975
0.0110484
0.0111875
0.0113144
0.0114288
0.0115307
0.0116197
0.0116959
0.0117593
0.0118098
0.0118477
0.0118731
0.0118862
0.0118874
0.0118771
0.0118556
0.0118233
0.0117808
0.0117284
0.0116666
0.0115958
0.0115162
0.0114281
0.0113324
0.0112297
0.0111096
0.0109627
0.000598037
0.000439935
0.00031273
0.000206005
0.000108231
1.9845e-05
-5.85676e-05
-0.00012724
-0.000186354
-0.00023596
-0.000276072
-0.000306713
-0.000327902
-0.000339652
-0.000341953
-0.000334789
-0.000318138
-0.000291993
-0.000256363
-0.000211266
-0.000156711
-9.26995e-05
-1.9242e-05
6.3631e-05
0.000155867
0.000257398
0.000368147
0.000488044
0.000617003
0.000754912
0.000901627
0.00105698
0.00122079
0.00139288
0.00157306
0.00176114
0.00195689
0.00216008
0.00237042
0.00258764
0.00281145
0.00304157
0.00327768
0.00351947
0.00376656
0.00401855
0.00427502
0.00453554
0.00479969
0.005067
0.00533696
0.00560906
0.00588275
0.00615744
0.00643256
0.0067075
0.00698166
0.00725443
0.00752519
0.00779331
0.00805812
0.00831897
0.00857518
0.00882608
0.00907102
0.00930936
0.00954048
0.00976374
0.00997851
0.0101842
0.0103802
0.0105659
0.010741
0.0109048
0.011057
0.0111972
0.0113251
0.0114404
0.0115429
0.0116325
0.0117091
0.0117726
0.011823
0.0118606
0.0118854
0.0118978
0.0118979
0.0118862
0.0118629
0.0118286
0.0117835
0.0117282
0.011663
0.0115882
0.0115042
0.011411
0.0113097
0.011201
0.0110738
0.0109182
0.000607676
0.000441064
0.000307125
0.000194955
9.23935e-05
-1.46836e-07
-8.20848e-05
-0.000153692
-0.000215204
-0.000266743
-0.000308393
-0.000340241
-0.000362367
-0.000374827
-0.000377645
-0.000370837
-0.00035443
-0.000328458
-0.000292956
-0.000247948
-0.000193449
-0.000129473
-5.60463e-05
2.67843e-05
0.000118959
0.000220411
0.000331075
0.000450883
0.000579746
0.000717542
0.000864124
0.00101933
0.001183
0.00135497
0.00153507
0.0017231
0.00191886
0.00212209
0.00233253
0.00254994
0.00277403
0.00300454
0.00324114
0.00348352
0.00373129
0.00398406
0.00424141
0.00450292
0.00476816
0.00503665
0.0053079
0.00558136
0.00585649
0.00613271
0.00640944
0.00668608
0.00696203
0.00723668
0.00750939
0.00777954
0.00804644
0.00830942
0.0085678
0.0088209
0.00906808
0.00930867
0.00954202
0.00976748
0.00998442
0.0101922
0.0103902
0.0105779
0.0107548
0.0109203
0.0110741
0.0112157
0.0113448
0.0114612
0.0115646
0.0116549
0.0117319
0.0117956
0.0118461
0.0118833
0.0119076
0.0119191
0.011918
0.0119047
0.0118796
0.011843
0.0117953
0.0117369
0.0116681
0.0115894
0.0115008
0.0114027
0.011296
0.0111814
0.0110475
0.0108839
0.000604573
0.000430039
0.000289753
0.000172367
6.51649e-05
-3.14547e-05
-0.000116905
-0.000191477
-0.000255451
-0.000309016
-0.00035233
-0.000385528
-0.000408725
-0.000422005
-0.000425438
-0.000419086
-0.000403018
-0.000377298
-0.000341972
-0.000297072
-0.000242623
-0.000178659
-0.00010523
-2.23929e-05
6.97919e-05
0.000171266
0.000281968
0.000401825
0.000530736
0.000668572
0.000815192
0.000970453
0.00113421
0.0013063
0.00148658
0.00167485
0.0018709
0.00207449
0.00228538
0.00250334
0.00272811
0.0029594
0.00319691
0.0034403
0.00368919
0.00394319
0.00420188
0.00446486
0.00473167
0.00500185
0.00527488
0.00555022
0.00582731
0.00610559
0.00638447
0.00666337
0.00694168
0.00721877
0.00749401
0.00776676
0.00803632
0.00830201
0.00856314
0.00881902
0.00906899
0.00931236
0.00954848
0.00977667
0.00999626
0.0102066
0.0104071
0.0105971
0.0107762
0.0109438
0.0110995
0.0112428
0.0113735
0.0114912
0.0115957
0.0116868
0.0117644
0.0118284
0.0118789
0.0119159
0.0119396
0.0119502
0.0119479
0.011933
0.0119059
0.0118669
0.0118164
0.0117548
0.0116824
0.0115996
0.0115066
0.0114035
0.0112915
0.0111713
0.0110311
0.0108599
0.000588208
0.000406268
0.00025999
0.00013759
2.58732e-05
-7.47313e-05
-0.000163638
-0.000241175
-0.000307659
-0.000363331
-0.000408405
-0.000443051
-0.000467404
-0.000481588
-0.000485722
-0.000479916
-0.000464265
-0.000438847
-0.000403719
-0.000358926
-0.000304515
-0.000240543
-0.000167073
-8.41705e-05
8.11146e-06
0.000109717
0.000220581
0.000340618
0.000469718
0.000607754
0.000754596
0.00091012
0.00107419
0.00124667
0.0014274
0.00161619
0.00181283
0.0020171
0.0022288
0.00244768
0.00267351
0.00290598
0.0031448
0.00338962
0.00364007
0.00389575
0.00415625
0.00442116
0.00469004
0.00496239
0.0052377
0.00551542
0.005795
0.00607587
0.00635746
0.00663918
0.00692041
0.00720053
0.00747889
0.00775482
0.00802762
0.00829661
0.00856107
0.0088203
0.00907362
0.00932033
0.00955975
0.00979117
0.0100139
0.0102273
0.0104307
0.0106235
0.0108052
0.0109753
0.0111332
0.0112786
0.0114111
0.0115304
0.0116362
0.0117283
0.0118067
0.0118711
0.0119217
0.0119584
0.0119815
0.0119912
0.0119876
0.011971
0.0119419
0.0119004
0.0118471
0.0117821
0.011706
0.0116191
0.0115216
0.0114136
0.0112964
0.0111708
0.0110245
0.0108463
0.000558149
0.000369221
0.000217249
9.0035e-05
-2.60614e-05
-0.000130554
-0.000222855
-0.000303348
-0.000372383
-0.000430226
-0.000477119
-0.000513265
-0.000538835
-0.000553997
-0.000558912
-0.000553722
-0.000538537
-0.000513444
-0.000478516
-0.000433822
-0.000379436
-0.000315429
-0.000241872
-0.000158827
-6.63493e-05
3.55021e-05
0.000146649
0.000266995
0.000396429
0.000534834
0.000682095
0.000838104
0.00100274
0.00117585
0.0013573
0.00154689
0.00174444
0.00194974
0.00216259
0.00238277
0.00261004
0.00284409
0.00308463
0.00333129
0.00358373
0.00384153
0.0041043
0.00437162
0.00464302
0.00491803
0.00519612
0.00547673
0.00575933
0.00604335
0.00632821
0.00661333
0.00689807
0.00718181
0.00746387
0.00774357
0.00802021
0.00829308
0.00856146
0.00882462
0.00908186
0.00933247
0.00957573
0.00981091
0.0100373
0.0102542
0.010461
0.0106571
0.0108418
0.0110147
0.0111753
0.0113231
0.0114577
0.0115788
0.0116861
0.0117794
0.0118586
0.0119236
0.0119744
0.012011
0.0120335
0.0120422
0.0120373
0.012019
0.0119877
0.0119437
0.0118873
0.011819
0.0117391
0.011648
0.011546
0.0114332
0.0113109
0.01118
0.0110279
0.010843
0.00051403
0.000318436
0.000161016
2.91843e-05
-9.11486e-05
-0.00019945
-0.000295108
-0.000378547
-0.000450152
-0.000510197
-0.000558939
-0.000596619
-0.000623461
-0.000639668
-0.000645427
-0.000640894
-0.000626194
-0.000601429
-0.000566698
-0.000522095
-0.000467712
-0.000403631
-0.000329922
-0.000246648
-0.000153869
-5.166e-05
5.98887e-05
0.000180677
0.000310601
0.000449556
0.000597445
0.000754168
0.000919604
0.00109362
0.00127605
0.00146674
0.00166551
0.00187218
0.00208654
0.00230839
0.00253748
0.0027735
0.00301615
0.00326507
0.00351991
0.00378028
0.00404576
0.00431594
0.00459036
0.00486851
0.00514987
0.0054339
0.00572005
0.00600778
0.00629649
0.00658559
0.00687444
0.00716239
0.00744875
0.00773284
0.00801392
0.00829128
0.00856417
0.00883185
0.00909359
0.00934866
0.00959631
0.00983579
0.0100664
0.0102873
0.010498
0.0106977
0.0108859
0.0110621
0.0112256
0.0113762
0.0115132
0.0116364
0.0117455
0.0118402
0.0119205
0.0119861
0.0120371
0.0120736
0.0120956
0.0121034
0.012097
0.012077
0.0120434
0.0119968
0.0119374
0.0118656
0.0117819
0.0116865
0.01158
0.0114624
0.011335
0.0111989
0.0110412
0.01085
0.000455545
0.000253536
9.08645e-05
-4.5426e-05
-0.000169874
-0.000281924
-0.000380916
-0.000467289
-0.000541454
-0.000603702
-0.000654312
-0.000693567
-0.000721732
-0.000739035
-0.000745672
-0.00074181
-0.000727595
-0.000703156
-0.000668616
-0.000624089
-0.000569676
-0.000505463
-0.000431523
-0.000347925
-0.000254744
-0.000152068
-3.99964e-05
8.13761e-05
0.000211958
0.000351658
0.00050039
0.000658055
0.000824537
0.000999701
0.0011834
0.00137549
0.00157581
0.00178418
0.00200041
0.0022243
0.00245557
0.00269393
0.00293907
0.00319066
0.00344832
0.00371168
0.00398032
0.00425382
0.00453171
0.00481349
0.00509863
0.00538661
0.00567687
0.00596887
0.00626201
0.00655569
0.00684925
0.00714202
0.00743331
0.0077224
0.00800854
0.008291
0.00856901
0.00884181
0.00910865
0.00936876
0.00962136
0.00986568
0.010101
0.0103265
0.0105415
0.0107454
0.0109376
0.0111174
0.0112843
0.0114379
0.0115777
0.0117033
0.0118144
0.0119108
0.0119922
0.0120587
0.0121101
0.0121465
0.012168
0.0121748
0.0121671
0.0121451
0.0121093
0.0120599
0.0119973
0.011922
0.0118344
0.0117348
0.0116237
0.0115013
0.0113689
0.0112278
0.0110646
0.0108672
0.000382429
0.000174203
6.41759e-06
-0.000134229
-0.000262709
-0.000378449
-0.000480748
-0.000570031
-0.000646734
-0.000711184
-0.000763692
-0.000804566
-0.00083409
-0.00085251
-0.000860032
-0.00085684
-0.000843107
-0.000818989
-0.00078463
-0.000740151
-0.00068566
-0.000621244
-0.000546986
-0.000462971
-0.00036929
-0.000266039
-0.000153316
-3.12049e-05
0.000100214
0.00024086
0.000390649
0.000549485
0.000717254
0.000893828
0.00107908
0.00127287
0.00147505
0.00168546
0.00190391
0.00213017
0.00236399
0.00260506
0.00285307
0.00310771
0.0033686
0.00363537
0.00390761
0.00418487
0.0044667
0.00475259
0.00504203
0.00533449
0.00562942
0.00592627
0.00622444
0.0065233
0.00682219
0.00712041
0.00741724
0.00771195
0.00800379
0.00829198
0.00857573
0.00885428
0.00912682
0.00939256
0.0096507
0.00990044
0.010141
0.0103716
0.0105915
0.0108001
0.0109966
0.0111806
0.0113513
0.0115084
0.0116513
0.0117796
0.011893
0.0119912
0.0120741
0.0121414
0.0121933
0.0122298
0.0122508
0.0122567
0.0122475
0.0122237
0.0121855
0.0121333
0.0120675
0.0119886
0.0118969
0.0117931
0.0116774
0.0115501
0.0114129
0.0112668
0.0110982
0.0108946
0.000294416
8.01244e-05
-9.26823e-05
-0.000237631
-0.000370087
-0.00048946
-0.000595023
-0.000687195
-0.000766431
-0.000833097
-0.000887532
-0.000930055
-0.000960953
-0.000980487
-0.000988888
-0.000986366
-0.000973114
-0.00094931
-0.000915107
-0.000870634
-0.000816001
-0.000751305
-0.000676647
-0.000592128
-0.00049785
-0.000393909
-0.000280394
-0.000157381
-2.494e-05
0.000116852
0.000267911
0.000428142
0.000597437
0.000775682
0.000962762
0.00115856
0.00136292
0.0015757
0.00179669
0.00202566
0.00226236
0.0025065
0.00275776
0.00301583
0.00328035
0.00355095
0.0038272
0.00410867
0.0043949
0.00468541
0.00497966
0.00527715
0.00557731
0.0058796
0.00618339
0.00648805
0.00679288
0.00709717
0.00740019
0.00770117
0.00799933
0.0082939
0.00858404
0.00886896
0.00914783
0.00941983
0.00968412
0.00993987
0.0101863
0.0104225
0.0106479
0.0108617
0.0110631
0.0112517
0.0114267
0.0115876
0.011734
0.0118653
0.0119813
0.0120816
0.0121661
0.0122346
0.0122871
0.0123236
0.0123442
0.0123492
0.0123386
0.0123128
0.0122722
0.0122172
0.0121481
0.0120655
0.0119698
0.0118616
0.0117413
0.0116092
0.011467
0.0113159
0.0111419
0.0109322
0.000191234
-2.90196e-05
-0.000206777
-0.000355992
-0.000492389
-0.000615348
-0.000724141
-0.000819201
-0.000900991
-0.000969896
-0.00102627
-0.00107045
-0.00110272
-0.00112337
-0.00113264
-0.00113079
-0.00111802
-0.00109451
-0.00106042
-0.0010159
-0.000961054
-0.000896006
-0.000820872
-0.000735765
-0.000640788
-0.000536032
-0.000421577
-0.000297491
-0.000163843
-2.07085e-05
0.000131827
0.000293675
0.000464737
0.000644914
0.000834107
0.0010322
0.00123906
0.00145451
0.00167836
0.00191037
0.00215029
0.00239783
0.0026527
0.00291458
0.00318313
0.00345795
0.00373865
0.00402478
0.00431589
0.00461151
0.00491111
0.00521417
0.00552014
0.00582845
0.00613848
0.00644954
0.00676094
0.00707193
0.00738177
0.00768966
0.00799482
0.00829641
0.00859361
0.00888556
0.00917142
0.00945031
0.00972139
0.00998379
0.0102367
0.0104792
0.0107106
0.0109301
0.011137
0.0113306
0.0115104
0.0116756
0.0118258
0.0119605
0.0120794
0.0121821
0.0122684
0.0123383
0.0123915
0.0124283
0.0124485
0.0124526
0.0124406
0.0124129
0.0123698
0.0123118
0.0122394
0.012153
0.0120533
0.0119406
0.0118156
0.0116787
0.0115314
0.0113752
0.0111958
0.0109799
7.26349e-05
-0.000153534
-0.000336192
-0.00048964
-0.000629963
-0.000756502
-0.000868521
-0.000966484
-0.00105086
-0.00112202
-0.00118034
-0.00122617
-0.00125981
-0.00128156
-0.00129172
-0.00129054
-0.00127822
-0.00125498
-0.00122096
-0.00117632
-0.00112121
-0.00105574
-0.000980059
-0.000894275
-0.000798488
-0.000692782
-0.000577232
-0.000451904
-0.000316867
-0.000172201
-1.79847e-05
0.000145701
0.000318772
0.000501146
0.00069273
0.000893415
0.00110306
0.00132148
0.00154848
0.00178384
0.0020273
0.0022786
0.00253743
0.0028035
0.00307646
0.00335592
0.00364149
0.00393274
0.00422922
0.00453045
0.00483593
0.00514513
0.00545749
0.00577242
0.00608927
0.00640736
0.00672595
0.00704428
0.00736159
0.00767705
0.00798986
0.00829916
0.00860409
0.00890375
0.00919727
0.00948374
0.00976228
0.010032
0.010292
0.0105414
0.0107794
0.0110053
0.0112182
0.0114175
0.0116024
0.0117724
0.0119269
0.0120654
0.0121875
0.0122929
0.0123813
0.0124527
0.0125069
0.0125439
0.012564
0.0125671
0.0125537
0.0125241
0.0124785
0.0124176
0.0123418
0.0122516
0.0121476
0.0120304
0.0119006
0.0117587
0.0116062
0.0114448
0.0112597
0.0110375
-6.15936e-05
-0.000293691
-0.000481242
-0.000638907
-0.000783171
-0.000913326
-0.0010286
-0.00112949
-0.00121646
-0.0012899
-0.00135016
-0.00139763
-0.00143265
-0.00145553
-0.00146657
-0.00146604
-0.00145416
-0.00143113
-0.00139713
-0.00135233
-0.00129688
-0.00123094
-0.00115463
-0.00106807
-0.00097135
-0.000864554
-0.000747754
-0.000621019
-0.000484422
-0.000338036
-0.000181937
-1.61902e-05
0.000159135
0.000343964
0.000538208
0.000741755
0.000954457
0.00117613
0.00140659
0.0016456
0.00189292
0.0021483
0.00241146
0.00268209
0.00295985
0.00324437
0.00353525
0.00383208
0.00413441
0.00444179
0.00475369
0.0050696
0.00538893
0.00571107
0.00603536
0.00636109
0.0066875
0.00701382
0.00733924
0.00766295
0.00798409
0.00830179
0.00861513
0.0089232
0.00922509
0.00951984
0.00980654
0.0100843
0.0103521
0.0106091
0.0108544
0.0110872
0.0113068
0.0115122
0.0117029
0.0118782
0.0120374
0.0121801
0.0123058
0.0124142
0.012505
0.0125781
0.0126334
0.0126709
0.0126908
0.0126932
0.0126784
0.0126468
0.0125987
0.0125348
0.0124554
0.0123613
0.012253
0.0121311
0.0119964
0.0118492
0.0116914
0.0115246
0.0113336
0.0111048
-0.000211654
-0.000449759
-0.000642255
-0.000804168
-0.000952412
-0.00108624
-0.00120482
-0.00130866
-0.00139824
-0.00147395
-0.00153618
-0.00158531
-0.00162172
-0.00164573
-0.00165766
-0.00165775
-0.00164626
-0.0016234
-0.00158937
-0.00154436
-0.00148853
-0.00142204