/*--------------------------------*- C++ -*----------------------------------*\
| =========                 |                                                 |
| \\      /  F ield         | OpenFOAM: The Open Source CFD Toolbox           |
|  \\    /   O peration     | Version:  2512                                  |
|   \\  /    A nd           | Website:  www.openfoam.com                      |
|    \\/     M anipulation  |                                                 |
\*---------------------------------------------------------------------------*/
FoamFile
{
    version     2.0;
    format      ascii;
    arch        "LSB;label=32;scalar=64";
    class       volScalarField;
    location    "0.26";
    object      p;
}
// * * * * * * * * * * * * * * * * * * * * * * * * * * * * * * * * * * * * * //

dimensions      [0 2 -2 0 0 0 0];

internalField   nonuniform List<scalar> 
10000
(
-5.53964e-09
-4.31848e-06
-3.79391e-05
-9.80136e-05
-0.000177618
-0.00027158
-0.000375041
-0.000483712
-0.000593863
-0.000702415
-0.000806793
-0.000904904
-0.000995055
-0.00107588
-0.00114626
-0.0012053
-0.00125231
-0.00128679
-0.00130834
-0.00131669
-0.00131163
-0.00129303
-0.00126086
-0.00121512
-0.00115587
-0.00108317
-0.000997134
-0.000897867
-0.000785524
-0.000660274
-0.000522305
-0.000371822
-0.00020905
-3.42342e-05
0.000152363
0.000350454
0.00055973
0.000779858
0.00101047
0.00125116
0.00150147
0.00176093
0.00202903
0.00230521
0.00258885
0.00287928
0.00317578
0.00347759
0.00378394
0.00409397
0.00440678
0.00472141
0.00503686
0.00535208
0.00566602
0.00597757
0.0062856
0.00658896
0.00688647
0.00717693
0.00745918
0.00773204
0.00799437
0.00824504
0.00848299
0.00870716
0.0089166
0.00911038
0.00928771
0.00944785
0.00959019
0.00971421
0.0098195
0.00990581
0.00997298
0.010021
0.0100501
0.0100605
0.0100527
0.0100273
0.00998514
0.00992707
0.00985423
0.00976787
0.00966944
0.00956053
0.00944291
0.00931854
0.00918957
0.00905833
0.00892738
0.00879953
0.0086778
0.00856549
0.00846617
0.00838359
0.00832144
0.00828302
0.00827077
0.00828039
-4.85166e-06
-8.73427e-06
-3.79771e-05
-8.89172e-05
-0.000156041
-0.000235396
-0.000323215
-0.000415991
-0.000510587
-0.000604286
-0.000694746
-0.000779994
-0.000858404
-0.000928633
-0.000989575
-0.00104032
-0.00108013
-0.00110845
-0.00112484
-0.00112899
-0.00112064
-0.00109963
-0.00106587
-0.0010193
-0.000959955
-0.000887866
-0.000803097
-0.000705747
-0.000595943
-0.000473822
-0.000339548
-0.000193318
-3.53447e-05
0.000134142
0.000314887
0.000506608
0.000709
0.000921742
0.00114448
0.0013768
0.00161827
0.00186841
0.00212673
0.00239268
0.00266565
0.00294501
0.00323005
0.00352004
0.00381422
0.00411177
0.00441184
0.00471351
0.00501581
0.00531777
0.00561836
0.00591654
0.00621124
0.00650138
0.00678584
0.00706352
0.00733329
0.00759408
0.00784481
0.00808444
0.00831196
0.00852642
0.00872692
0.00891263
0.0090828
0.00923677
0.00937398
0.00949399
0.00959643
0.00968107
0.00974782
0.0097967
0.00982789
0.00984171
0.00983861
0.00981922
0.00978428
0.00973471
0.00967155
0.00959604
0.00950952
0.00941352
0.00930973
0.00919997
0.00908625
0.00897073
0.00885577
0.00874387
0.0086377
0.00854011
0.00845404
0.00838243
0.00832796
0.00829292
0.00828029
0.00828996
1.57281e-05
1.03344e-05
-1.72566e-05
-6.34693e-05
-0.000123511
-0.00019402
-0.00027187
-0.000354075
-0.000437944
-0.000521099
-0.000601441
-0.000677159
-0.000746714
-0.000808823
-0.00086243
-0.000906649
-0.00094074
-0.000964121
-0.000976337
-0.000977039
-0.000965969
-0.000942943
-0.000907825
-0.00086054
-0.000801069
-0.000729431
-0.000645674
-0.000549876
-0.000442142
-0.000322589
-0.000191365
-4.86547e-05
0.000105339
0.0002704
0.000446284
0.000632717
0.000829401
0.00103602
0.00125223
0.00147763
0.0017118
0.00195428
0.00220456
0.00246213
0.00272638
0.0029967
0.00327241
0.00355281
0.00383715
0.00412464
0.00441445
0.0047057
0.00499747
0.00528882
0.00557877
0.00586632
0.00615045
0.00643012
0.00670427
0.00697185
0.00723181
0.00748311
0.00772473
0.0079557
0.00817506
0.00838191
0.00857542
0.0087548
0.00891937
0.00906852
0.00920172
0.00931855
0.00941871
0.00950199
0.00956833
0.00961777
0.00965049
0.00966683
0.00966723
0.0096523
0.00962278
0.00957956
0.00952365
0.00945622
0.00937857
0.00929215
0.00919856
0.00909951
0.0089969
0.00889272
0.00878913
0.0086884
0.00859291
0.00850515
0.00842764
0.00836285
0.00831296
0.00827995
0.00826749
0.00827778
6.42019e-05
5.19882e-05
2.18159e-05
-2.36288e-05
-8.07416e-05
-0.000146632
-0.000218597
-0.000294076
-0.000370728
-0.000446465
-0.000519444
-0.000588035
-0.000650824
-0.000706614
-0.000754401
-0.000793348
-0.000822766
-0.000842077
-0.000850811
-0.000848614
-0.000835224
-0.000810446
-0.000774135
-0.000726203
-0.000666607
-0.000595342
-0.00051244
-0.000417969
-0.000312017
-0.000194685
-6.61088e-05
7.3537e-05
0.000224061
0.000385259
0.000556903
0.00073873
0.000930449
0.00113175
0.00134229
0.0015617
0.00178955
0.00202541
0.00226879
0.00251916
0.00277596
0.00303858
0.00330636
0.00357862
0.00385465
0.00413367
0.00441488
0.00469742
0.00498042
0.00526295
0.00554408
0.00582284
0.00609826
0.00636933
0.00663503
0.00689435
0.0071463
0.00738986
0.00762408
0.00784802
0.00806076
0.00826145
0.0084493
0.00862357
0.0087836
0.00892881
0.00905874
0.00917297
0.00927123
0.00935334
0.00941924
0.009469
0.00950281
0.009521
0.00952402
0.00951246
0.00948703
0.00944861
0.00939816
0.00933682
0.00926584
0.00918659
0.00910057
0.00900943
0.00891491
0.00881889
0.00872333
0.00863031
0.00854197
0.00846051
0.00838815
0.00832706
0.00827919
0.0082464
0.00823238
0.00823979
0.000135403
0.000111577
7.53152e-05
2.77629e-05
-2.91238e-05
-9.29288e-05
-0.00016136
-0.000232281
-0.00030369
-0.000373774
-0.000440921
-0.000503702
-0.000560859
-0.000611296
-0.000654081
-0.000688438
-0.000713718
-0.000729383
-0.000734986
-0.000730172
-0.000714673
-0.000688289
-0.000650878
-0.000602344
-0.000542633
-0.000471727
-0.000389641
-0.000296429
-0.000192164
-7.69395e-05
4.91197e-05
0.000185852
0.000333078
0.000490608
0.000658223
0.000835675
0.00102268
0.00121895
0.00142414
0.00163789
0.0018598
0.00208944
0.00232634
0.00257
0.00281985
0.00307531
0.00333575
0.00360049
0.00386885
0.00414009
0.00441343
0.00468803
0.00496303
0.00523756
0.0055107
0.00578153
0.0060491
0.00631243
0.00657056
0.00682251
0.00706729
0.00730397
0.0075316
0.00774928
0.00795615
0.00815138
0.00833421
0.00850394
0.00865993
0.00880165
0.00892864
0.00904053
0.00913705
0.00921804
0.00928346
0.00933339
0.00936802
0.00938768
0.00939281
0.00938399
0.00936192
0.00932743
0.00928147
0.00922513
0.00915958
0.00908615
0.00900627
0.00892145
0.00883335
0.00874369
0.00865429
0.00856701
0.0084838
0.00840661
0.00833739
0.00827805
0.00823034
0.00819597
0.00817799
0.00817857
0.000223311
0.000185047
0.00014021
8.82712e-05
2.93584e-05
-3.454e-05
-0.000101489
-0.000169745
-0.000237664
-0.000303701
-0.000366451
-0.00042468
-0.000477292
-0.000523316
-0.000561913
-0.000592373
-0.000614093
-0.000626577
-0.000629421
-0.000622288
-0.000604919
-0.000577114
-0.00053873
-0.000489669
-0.000429876
-0.000359328
-0.000278029
-0.000186014
-8.3351e-05
2.98752e-05
0.000153551
0.000287528
0.000431641
0.00058571
0.000749529
0.000922861
0.00110544
0.00129697
0.00149715
0.00170562
0.00192199
0.00214585
0.00237674
0.00261417
0.00285762
0.0031065
0.0033602
0.00361807
0.00387946
0.00414363
0.00440984
0.00467727
0.00494509
0.00521245
0.00547845
0.00574221
0.00600281
0.00625931
0.00651075
0.00675619
0.00699469
0.00722532
0.00744719
0.0076594
0.00786115
0.00805161
0.00823007
0.00839583
0.00854831
0.00868697
0.00881137
0.00892116
0.00901611
0.00909605
0.00916096
0.00921091
0.00924611
0.00926686
0.00927362
0.00926694
0.00924751
0.00921612
0.00917369
0.00912127
0.00905999
0.0089911
0.00891594
0.00883596
0.00875269
0.00866771
0.00858271
0.00849939
0.00841947
0.0083447
0.00827679
0.00821743
0.00816816
0.00813054
0.00810656
0.00809741
0.000322827
0.000268564
0.000213482
0.000155425
9.26731e-05
2.68471e-05
-4.04042e-05
-0.000107697
-0.000173701
-0.000237141
-0.000296838
-0.00035172
-0.000400842
-0.000443374
-0.000478585
-0.00050584
-0.000524595
-0.000534401
-0.000534894
-0.000525768
-0.000506786
-0.000477764
-0.000438556
-0.00038907
-0.000329252
-0.000259076
-0.000178537
-8.76666e-05
1.34771e-05
0.000124817
0.000246251
0.00037764
0.000518832
0.000669663
0.000829938
0.00099943
0.00117788
0.00136502
0.00156055
0.00176413
0.0019754
0.00219394
0.00241933
0.00265108
0.00288869
0.0031316
0.00337921
0.00363091
0.00388604
0.00414391
0.00440377
0.00466485
0.00492633
0.00518737
0.00544713
0.00570472
0.00595926
0.00620982
0.00645549
0.00669533
0.00692843
0.00715389
0.00737082
0.00757839
0.00777577
0.00796218
0.00813692
0.00829932
0.0084488
0.00858484
0.00870702
0.008815
0.00890854
0.00898751
0.00905188
0.00910173
0.00913724
0.00915874
0.00916666
0.00916153
0.00914403
0.00911493
0.00907512
0.00902558
0.00896742
0.00890181
0.00883004
0.00875345
0.00867348
0.00859161
0.00850937
0.0084283
0.00834997
0.00827593
0.00820769
0.00814669
0.00809436
0.00805203
0.00802049
0.00799978
0.000429594
0.000358561
0.000292177
0.00022675
0.000158791
8.96104e-05
2.0608e-05
-4.71354e-05
-0.000112566
-0.000174661
-0.000232455
-0.000285051
-0.000331646
-0.000371537
-0.0004041
-0.000428791
-0.000445138
-0.000452749
-0.000451295
-0.000440509
-0.00042018
-0.000390145
-0.000350272
-0.000300475
-0.000240704
-0.000170929
-9.11437e-05
-1.37834e-06
9.83153e-05
0.000207869
0.000327189
0.000456146
0.000594599
0.000742402
0.000899371
0.00106529
0.00123991
0.00142298
0.00161422
0.00181331
0.00201989
0.00223357
0.00245394
0.00268053
0.00291287
0.00315039
0.00339255
0.00363872
0.00388829
0.00414057
0.00439485
0.00465036
0.0049063
0.00516186
0.00541621
0.00566849
0.00591784
0.00616335
0.00640411
0.00663921
0.00686776
0.00708887
0.00730168
0.00750536
0.00769911
0.00788217
0.00805382
0.00821342
0.0083604
0.00849426
0.00861457
0.00872101
0.00881334
0.00889142
0.00895524
0.00900487
0.00904049
0.00906242
0.00907106
0.00906696
0.00905076
0.0090232
0.00898514
0.00893755
0.00888145
0.00881799
0.00874837
0.00867388
0.00859584
0.00851564
0.00843469
0.00835438
0.00827615
0.00820136
0.00813136
0.00806738
0.00801071
0.00796251
0.00792231
0.00788897
0.000539844
0.000451851
0.000373569
0.000299904
0.000225729
0.000152102
8.02096e-05
1.08689e-05
-5.51138e-05
-0.00011693
-0.000173811
-0.000225039
-0.000269957
-0.000307976
-0.000338572
-0.000361296
-0.000375757
-0.00038162
-0.000378607
-0.000366488
-0.000345081
-0.000314245
-0.00027387
-0.000223883
-0.000164238
-9.49046e-05
-1.58805e-05
7.28049e-05
0.000171105
0.000278959
0.000396279
0.000522948
0.000658837
0.000803811
0.0009577
0.0011203
0.00129138
0.00147069
0.00165798
0.00185295
0.00205525
0.00226451
0.00248033
0.00270227
0.00292987
0.00316259
0.00339988
0.00364118
0.00388585
0.00413325
0.00438266
0.00463334
0.00488452
0.00513539
0.00538515
0.00563295
0.00587793
0.00611922
0.00635591
0.0065871
0.00681191
0.00702947
0.00723893
0.00743947
0.00763029
0.00781064
0.00797982
0.00813719
0.00828216
0.00841426
0.00853305
0.00863822
0.00872952
0.00880682
0.0088701
0.00891942
0.00895497
0.00897704
0.00898604
0.00898248
0.008967
0.0089403
0.00890324
0.00885671
0.00880173
0.00873938
0.00867082
0.00859723
0.0085199
0.00844009
0.00835911
0.00827826
0.00819881
0.00812201
0.00804903
0.00798094
0.00791889
0.00786395
0.00781436
0.00776787
0.000650434
0.000545615
0.000455175
0.000372718
0.000291593
0.000212689
0.000137026
6.51679e-05
-2.29219e-06
-6.47299e-05
-0.000121555
-0.000172217
-0.000216197
-0.000253022
-0.000282272
-0.000303585
-0.000316646
-0.000321186
-0.000316981
-0.000303841
-0.000281617
-0.000250196
-0.000209489
-0.000159437
-0.000100002
-3.11621e-05
4.70839e-05
0.000134706
0.00023166
0.000337887
0.00045331
0.000577826
0.000711316
0.000853653
0.00100468
0.0011642
0.00133201
0.00150787
0.00169155
0.00188276
0.00208118
0.00228645
0.00249818
0.00271596
0.00293933
0.0031678
0.00340084
0.00363787
0.00387829
0.00412148
0.00436673
0.00461332
0.00486048
0.00510743
0.00535338
0.00559749
0.00583892
0.00607679
0.00631021
0.00653829
0.00676015
0.00697493
0.00718179
0.00737991
0.00756849
0.00774678
0.00791409
0.00806976
0.00821322
0.00834398
0.00846161
0.00856578
0.00865626
0.0087329
0.00879567
0.00884463
0.00887995
0.00890193
0.00891094
0.0089075
0.00889221
0.00886577
0.00882899
0.00878275
0.00872802
0.00866584
0.00859731
0.00852358
0.00844583
0.00836527
0.00828311
0.00820054
0.00811873
0.00803882
0.00796182
0.00788867
0.00782045
0.0077581
0.00769869
0.00763892
0.000758684
0.000637366
0.000534738
0.000443176
0.000354604
0.000269805
0.000189684
0.000114585
4.49067e-05
-1.89015e-05
-7.64049e-05
-0.000127193
-0.00017088
-0.00020711
-0.000235567
-0.000255973
-0.000268086
-0.000271702
-0.00026665
-0.000252786
-0.000229998
-0.000198203
-0.000157334
-0.000107344
-4.82104e-05
2.00796e-05
9.7523e-05
0.000184089
0.000279733
0.000384401
0.000498024
0.000620511
0.000751756
0.000891635
0.00104
0.00119669
0.00136149
0.0015342
0.0017146
0.00190241
0.00209732
0.00229901
0.0025071
0.0027212
0.00294087
0.00316563
0.00339497
0.00362834
0.00386515
0.00410478
0.00434655
0.00458975
0.00483362
0.0050774
0.0053203
0.0055615
0.00580015
0.00603539
0.00626632
0.00649207
0.00671175
0.00692451
0.0071295
0.0073259
0.00751291
0.00768978
0.00785581
0.00801033
0.00815277
0.00828261
0.00839944
0.00850291
0.00859278
0.0086689
0.00873122
0.00877979
0.00881478
0.00883645
0.00884519
0.00884149
0.00882592
0.00879918
0.00876205
0.00871538
0.00866012
0.00859725
0.00852784
0.00845299
0.00837382
0.00829148
0.00820709
0.00812178
0.00803662
0.00795263
0.00787074
0.00779176
0.00771672
0.00764649
0.00757704
0.0075041
0.000862336
0.00072494
0.000610218
0.000509409
0.000413092
0.00032196
0.000236854
0.000157948
8.54556e-05
1.96641e-05
-3.91271e-05
-9.06319e-05
-0.000134587
-0.000170753
-0.000198908
-0.000218856
-0.000230431
-0.000233491
-0.000227915
-0.000213609
-0.000190499
-0.000158533
-0.000117666
-6.78669e-05
-9.1284e-06
5.85509e-05
0.000135161
0.00022067
0.000315032
0.000418201
0.000530116
0.000650693
0.000779831
0.000917423
0.00106333
0.00121741
0.00137946
0.0015493
0.00172673
0.00191148
0.00210328
0.00230179
0.00250667
0.00271755
0.00293401
0.0031556
0.0033818
0.00361209
0.0038459
0.00408261
0.00432156
0.00456206
0.00480335
0.00504468
0.00528527
0.00552431
0.00576095
0.00599431
0.00622353
0.0064477
0.00666595
0.00687743
0.00708127
0.00727665
0.00746276
0.00763885
0.00780418
0.00795809
0.00809999
0.00822936
0.00834576
0.00844884
0.00853834
0.0086141
0.00867605
0.00872424
0.00875881
0.00878002
0.00878824
0.00878394
0.00876769
0.00874016
0.0087021
0.00865436
0.00859784
0.00853351
0.0084624
0.00838556
0.00830406
0.00821901
0.00813147
0.0080425
0.00795309
0.00786421
0.00777668
0.00769123
0.00760886
0.00753041
0.00745085
0.007365
0.000959448
0.000806439
0.000679799
0.000569708
0.000465475
0.000367727
0.000277257
0.000194099
0.000118312
5.00458e-05
-1.05295e-05
-6.32495e-05
-0.000107961
-0.000144523
-0.000172808
-0.000192702
-0.000204108
-0.000206943
-0.000201144
-0.000186661
-0.00016346
-0.000131515
-9.08058e-05
-4.13242e-05
1.6924e-05
8.3929e-05
0.000159671
0.000244115
0.00033722
0.000438944
0.000549232
0.000668006
0.000795173
0.000930637
0.00107428
0.00122596
0.00138551
0.00155276
0.00172752
0.00190956
0.00209859
0.00229431
0.00249641
0.00270453
0.00291827
0.00313719
0.0033608
0.00358858
0.00381998
0.00405439
0.00429117
0.00452962
0.00476902
0.00500862
0.00524763
0.00548523
0.00572059
0.00595284
0.00618108
0.00640443
0.006622
0.00683292
0.00703632
0.00723137
0.00741725
0.00759318
0.00775841
0.00791226
0.00805413
0.00818347
0.00829983
0.00840284
0.00849223
0.00856781
0.00862951
0.00867735
0.00871147
0.0087321
0.0087396
0.00873442
0.00871712
0.00868836
0.00864886
0.00859946
0.00854104
0.00847455
0.00840097
0.00832135
0.00823671
0.00814812
0.00805659
0.00796314
0.00786871
0.00777421
0.00768039
0.00758793
0.00749784
0.00741095
0.00732128
0.00722284
0.00104829
0.000880174
0.000741854
0.000622513
0.000510285
0.000405751
0.000309652
0.000221904
0.000142447
7.13112e-05
8.54213e-06
-4.58088e-05
-9.16879e-05
-0.000129046
-0.000157841
-0.000178036
-0.000189601
-0.000192515
-0.000186768
-0.000172355
-0.000149275
-0.000117532
-7.71318e-05
-2.80895e-05
2.95739e-05
9.58377e-05
0.000170675
0.000254045
0.000345912
0.000446238
0.000554972
0.00067204
0.00079736
0.000930849
0.00107241
0.0012219
0.00137919
0.00154412
0.0017165
0.00189614
0.00208275
0.00227608
0.00247581
0.00268161
0.00289309
0.00310984
0.00333137
0.0035572
0.00378676
0.00401948
0.00425472
0.00449179
0.00472997
0.00496851
0.00520664
0.00544353
0.00567835
0.0059102
0.00613821
0.00636148
0.0065791
0.00679018
0.00699386
0.00718927
0.00737558
0.00755198
0.00771771
0.00787206
0.00801441
0.00814419
0.00826092
0.00836421
0.00845377
0.0085294
0.008591
0.00863857
0.00867222
0.00869219
0.0086988
0.00869251
0.00867385
0.00864346
0.00860208
0.0085505
0.00848959
0.00842029
0.00834358
0.00826045
0.00817193
0.00807903
0.00798276
0.00788409
0.00778395
0.00768318
0.00758252
0.0074826
0.00738445
0.00728894
0.00718922
0.00707854
0.00112734
0.00094462
0.000794896
0.000666399
0.000546161
0.000434736
0.000332835
0.00024026
0.000156849
8.2525e-05
1.7225e-05
-3.9101e-05
-8.64929e-05
-0.000124988
-0.000154622
-0.000175431
-0.000187449
-0.000190717
-0.000185273
-0.000171151
-0.000148387
-0.000117016
-7.70706e-05
-2.85857e-05
2.84014e-05
9.38564e-05
0.000167747
0.000250033
0.000340679
0.000439647
0.000546889
0.000662341
0.000785932
0.000917591
0.00105723
0.00120474
0.00135999
0.00152285
0.00169315
0.00187068
0.00205523
0.00224652
0.00244427
0.00264818
0.00285786
0.00307292
0.00329289
0.0035173
0.00374559
0.00397721
0.00421151
0.00444783
0.00468545
0.00492362
0.00516155
0.00539844
0.00563342
0.00586562
0.00609413
0.00631804
0.00653643
0.00674841
0.00695307
0.00714954
0.00733694
0.00751446
0.0076813
0.00783673
0.00798009
0.00811078
0.00822831
0.00833227
0.00842232
0.00849824
0.00855992
0.00860732
0.00864055
0.00865981
0.00866543
0.00865783
0.00863755
0.0086052
0.00856152
0.00850729
0.00844337
0.00837069
0.00829021
0.00820292
0.00810983
0.00801194
0.00791025
0.00780569
0.00769919
0.00759159
0.00748359
0.0073758
0.00726931
0.00716503
0.00705534
0.00693274
0.00119521
0.000998386
0.000837559
0.000700049
0.000571833
0.000453468
0.000345654
0.000248092
0.000160514
8.27503e-05
1.46486e-05
-4.39346e-05
-9.31285e-05
-0.000133049
-0.000163805
-0.000185501
-0.000198236
-0.000202103
-0.000197184
-0.000183555
-0.000161288
-0.000130449
-9.10947e-05
-4.32801e-05
1.29392e-05
7.75189e-05
0.000150424
0.000231612
0.000321046
0.000418687
0.000524494
0.000638412
0.000760381
0.000890345
0.00102823
0.00117394
0.00132737
0.0014884
0.00165687
0.00183261
0.0020154
0.00220502
0.00240118
0.00260359
0.00281192
0.00302575
0.00324466
0.00346816
0.00369573
0.00392681
0.00416078
0.00439697
0.00463467
0.00487313
0.00511155
0.00534912
0.00558498
0.00581824
0.00604797
0.00627326
0.00649316
0.00670675
0.00691311
0.00711133
0.00730051
0.00747981
0.00764839
0.00780548
0.0079504
0.00808253
0.00820133
0.00830634
0.00839723
0.00847374
0.0085357
0.00858309
0.00861597
0.00863454
0.00863909
0.00863004
0.00860791
0.00857333
0.00852699
0.00846969
0.00840229
0.0083257
0.00824089
0.00814883
0.00805055
0.00794703
0.00783927
0.00772822
0.00761478
0.00749981
0.007384
0.00726797
0.00715288
0.00703971
0.00692009
0.00678586
0.0012507
0.00104021
0.000868582
0.000722225
0.000586107
0.000460804
0.000347017
0.000244355
0.000152454
7.10617e-05
-5.77822e-08
-6.11305e-05
-0.000112365
-0.000153953
-0.000186074
-0.000208898
-0.00022258
-0.000227259
-0.000223066
-0.000210115
-0.000188511
-0.000158352
-0.000119719
-7.26856e-05
-1.73209e-05
4.63215e-05
0.0001182
0.00019827
0.000286493
0.000382833
0.000487253
0.000599709
0.000720155
0.000848548
0.000984829
0.00112892
0.00128073
0.00144015
0.00160705
0.00178127
0.00196262
0.00215089
0.00234583
0.00254715
0.00275454
0.0029676
0.00318591
0.00340901
0.00363639
0.00386749
0.00410171
0.00433837
0.00457678
0.00481617
0.00505575
0.00529469
0.00553214
0.00576717
0.00599885
0.00622624
0.00644838
0.00666432
0.0068731
0.00707378
0.00726544
0.00744719
0.00761815
0.00777753
0.0079246
0.0080587
0.00817925
0.00828578
0.00837789
0.00845529
0.00851781
0.00856537
0.00859803
0.00861594
0.0086194
0.00860881
0.00858467
0.0085476
0.0084983
0.00843756
0.00836625
0.00828528
0.00819561
0.00809823
0.00799417
0.00788443
0.00777001
0.00765188
0.00753097
0.00740812
0.00728407
0.00715945
0.00703549
0.00691329
0.00678375
0.0066381
0.00129269
0.00106897
0.000886797
0.000731768
0.000587862
0.00045566
0.000335872
0.000228038
0.000131707
4.65453e-05
-2.77605e-05
-9.15091e-05
-0.000144982
-0.000188444
-0.000222139
-0.000246296
-0.000261123
-0.000266806
-0.000263517
-0.000251411
-0.000230626
-0.000201286
-0.000163495
-0.000117348
-6.29242e-05
-2.83019e-07
7.05259e-05
0.000149453
0.000236459
0.000331514
0.000434588
0.000545647
0.000664658
0.000791591
0.000926404
0.00106903
0.0012194
0.00137742
0.00154299
0.00171596
0.00189616
0.00208341
0.00227747
0.00247807
0.00268491
0.00289763
0.0031158
0.00333898
0.00356668
0.00379834
0.00403337
0.0042711
0.00451083
0.00475179
0.00499319
0.00523419
0.00547391
0.00571143
0.00594579
0.00617602
0.00640113
0.00662015
0.0068321
0.00703598
0.00723083
0.00741572
0.00758975
0.00775206
0.00790189
0.00803854
0.00816138
0.00826989
0.00836365
0.00844233
0.0085057
0.00855368
0.00858627
0.00860363
0.00860602
0.00859383
0.00856756
0.00852781
0.00847529
0.00841079
0.00833518
0.00824939
0.00815438
0.00805117
0.00794079
0.00782427
0.00770263
0.00757687
0.00744795
0.00731674
0.00718401
0.00705044
0.00691735
0.00678595
0.00664646
0.00648951
0.00132018
0.00108359
0.000891138
0.000727607
0.000576033
0.000436996
0.000311215
0.000198168
9.73335e-05
8.29938e-06
-6.93198e-05
-0.000135892
-0.000191766
-0.000237274
-0.000272721
-0.000298389
-0.000314532
-0.000321387
-0.000319166
-0.000308059
-0.000288235
-0.000259844
-0.000223014
-0.000177853
-0.000124451
-6.28762e-05
6.81312e-06
8.45652e-05
0.000170342
0.00026412
0.000365879
0.000475593
0.000593243
0.000718814
0.000852278
0.000993588
0.00114268
0.0012995
0.00146394
0.00163591
0.00181524
0.00200176
0.00219526
0.00239549
0.00260217
0.00281495
0.00303341
0.00325714
0.00348564
0.00371839
0.00395478
0.00419416
0.0044358
0.00467896
0.00492283
0.00516656
0.00540925
0.00564997
0.00588773
0.00612154
0.00635039
0.00657325
0.00678911
0.00699694
0.00719573
0.00738449
0.00756229
0.00772822
0.00788147
0.00802127
0.00814698
0.00825801
0.00835389
0.00843425
0.00849883
0.00854751
0.00858026
0.00859721
0.00859861
0.00858482
0.00855633
0.00851376
0.00845781
0.00838927
0.00830903
0.00821801
0.00811722
0.00800769
0.00789048
0.00776664
0.00763725
0.00750333
0.00736588
0.00722583
0.007084
0.00694109
0.00679857
0.00665775
0.00650823
0.00634
0.00133217
0.00108308
0.000880608
0.000708739
0.000549612
0.000403818
0.000272078
0.000153807
4.84193e-05
-4.45612e-05
-0.000125588
-0.000195099
-0.000253511
-0.000301209
-0.000338555
-0.000365883
-0.000383497
-0.000391674
-0.000390668
-0.0003807
-0.000361971
-0.000334654
-0.000298895
-0.000254816
-0.000202518
-0.000142081
-7.35675e-05
2.97098e-06
8.75007e-05
0.000180001
0.000280462
0.00038887
0.000505219
0.000629507
0.000761722
0.000901834
0.0010498
0.00120558
0.00136911
0.00154028
0.00171898
0.00190505
0.00209829
0.00229849
0.00250536
0.00271857
0.00293775
0.00316246
0.00339224
0.00362657
0.00386485
0.00410642
0.00435058
0.00459655
0.00484353
0.00509065
0.00533701
0.00558164
0.00582354
0.00606169
0.00629503
0.00652251
0.00674306
0.00695561
0.00715911
0.00735251
0.00753483
0.0077051
0.00786246
0.00800609
0.00813528
0.0082494
0.00834793
0.00843045
0.00849665
0.00854637
0.00857955
0.0085963
0.00859683
0.00858149
0.00855078
0.00850529
0.00844574
0.00837292
0.00828774
0.00819114
0.00808416
0.00796785
0.00784331
0.00771166
0.00757398
0.00743137
0.00728488
0.0071355
0.00698411
0.00683147
0.00667919
0.00652869
0.00636895
0.00618936
0.00132776
0.00106651
0.000854252
0.000674208
0.000507647
0.000355177
0.000217526
9.40406e-05
-1.59218e-05
-0.000112898
-0.000197407
-0.000269952
-0.000331007
-0.000381014
-0.000420385
-0.000449504
-0.000468723
-0.000478359
-0.000478701
-0.000470004
-0.000452496
-0.00042637
-0.000391789
-0.000348888
-0.000297782
-0.000238558
-0.000171281
-9.60027e-05
-1.27507e-05
7.84597e-05
0.000177627
0.000284752
0.000399841
0.000522906
0.000653949
0.000792963
0.000939928
0.00109482
0.00125759
0.00142818
0.00160647
0.00179233
0.00198558
0.00218604
0.00239342
0.00260743
0.00282769
0.00305381
0.00328532
0.0035217
0.00376238
0.00400669
0.00425392
0.00450331
0.00475403
0.00500521
0.00525593
0.00550519
0.00575197
0.00599522
0.00623383
0.00646672
0.00669276
0.00691085
0.00711986
0.0073187
0.00750632
0.00768171
0.00784393
0.00799211
0.00812547
0.00824332
0.00834508
0.00843028
0.00849858
0.00854975
0.0085837
0.0086005
0.00860035
0.00858358
0.00855068
0.00850223
0.00843895
0.00836166
0.00827128
0.00816878
0.00805522
0.0079317
0.00779937
0.00765939
0.00751292
0.0073611
0.00720505
0.00704583
0.00688439
0.0067216
0.00655916
0.00639866
0.00622844
0.0060373
0.0013061
0.00103298
0.000811156
0.000623104
0.00044923
0.000290165
0.000146654
1.79834e-05
-9.6558e-05
-0.000197564
-0.000285612
-0.000361263
-0.000425045
-0.000477457
-0.000518962
-0.000549989
-0.000570934
-0.000582152
-0.000583969
-0.000576667
-0.000560498
-0.000535675
-0.000502378
-0.000460756
-0.000410934
-0.000353004
-0.000287034
-0.000213071
-0.000131139
-4.12464e-05
5.66162e-05
0.000162462
0.000276311
0.000398189
0.000528117
0.000666109
0.000812169
0.000966292
0.00112846
0.00129861
0.00147668
0.00166255
0.00185606
0.00205703
0.00226523
0.00248035
0.00270206
0.00292997
0.00316362
0.00340251
0.00364606
0.00389363
0.00414449
0.00439788
0.00465297
0.00490887
0.00516462
0.00541924
0.00567165
0.00592077
0.00616546
0.00640457
0.00663694
0.00686139
0.00707676
0.00728189
0.00747566
0.00765699
0.00782487
0.00797837
0.00811664
0.00823893
0.00834458
0.00843308
0.00850401
0.0085571
0.00859223
0.00860942
0.00860884
0.00859082
0.00855581
0.00850441
0.00843734
0.00835543
0.00825962
0.00815093
0.00803044
0.00789931
0.00775874
0.00760995
0.00745416
0.00729259
0.00712644
0.00695686
0.00678486
0.00661142
0.00643838
0.00626749
0.00608644
0.00588343
0.00126637
0.000981638
0.000750447
0.00055454
0.000373478
0.000207907
5.85929e-05
-7.52314e-05
-0.000194345
-0.000299399
-0.000391026
-0.000469837
-0.000536418
-0.000591318
-0.00063505
-0.000668089
-0.00069087
-0.000703787
-0.000707195
-0.000701406
-0.00068669
-0.000663282
-0.000631377
-0.00059114
-0.000542699
-0.000486152
-0.000421567
-0.000348988
-0.000268433
-0.000179901
-8.33737e-05
2.11755e-05
0.00013378
0.000254483
0.000383326
0.000520346
0.000665568
0.000819012
0.000980677
0.00115054
0.00132854
0.00151459
0.00170855
0.00191028
0.00211954
0.00233607
0.00255955
0.00278959
0.00302578
0.0032676
0.00351448
0.0037658
0.00402083
0.00427879
0.00453885
0.0048001
0.00506159
0.00532228
0.00558108
0.00583685
0.00608843
0.00633461
0.00657416
0.00680587
0.00702848
0.00724079
0.0074416
0.00762975
0.00780417
0.00796384
0.00810784
0.00823533
0.00834561
0.00843808
0.00851226
0.00856783
0.00860462
0.00862261
0.00862193
0.00860289
0.00856594
0.00851165
0.00844078
0.00835415
0.00825274
0.0081376
0.00800986
0.00787073
0.00772148
0.00756339
0.00739776
0.00722591
0.0070491
0.00686859
0.00668549
0.00650085
0.00631671
0.00613495
0.00594262
0.00572729
0.00120779
0.000911675
0.000671291
0.000467666
0.000279534
0.000107552
-4.75037e-05
-0.000186451
-0.000310124
-0.000419233
-0.000514462
-0.000596476
-0.000665914
-0.000723377
-0.000769422
-0.000804568
-0.000829288
-0.000844012
-0.000849124
-0.000844959
-0.000831811
-0.000809932
-0.000779534
-0.000740791
-0.000693837
-0.000638772
-0.000575662
-0.00050455
-0.000425444
-0.000338336
-0.000243197
-0.000139987
-2.86561e-05
9.0858e-05
0.000218619
0.000354685
0.000499106
0.000651923
0.000813163
0.000982824
0.00116087
0.00134724
0.00154183
0.00174449
0.00195504
0.00217323
0.00239875
0.00263125
0.00287031
0.00311545
0.0033661
0.00362162
0.00388132
0.00414441
0.00441003
0.00467729
0.00494518
0.00521266
0.00547861
0.00574184
0.00600114
0.00625524
0.00650288
0.00674275
0.00697355
0.00719398
0.00740277
0.0075987
0.00778059
0.00794735
0.00809797
0.00823154
0.00834726
0.00844447
0.00852261
0.00858131
0.00862033
0.0086396
0.00863923
0.00861949
0.00858082
0.00852379
0.00844915
0.00835776
0.00825061
0.0081288
0.00799351
0.00784602
0.00768766
0.00751979
0.0073438
0.0071611
0.00697305
0.00678101
0.0065862
0.00638979
0.00619396
0.00600078
0.00579662
0.00556838
0.00112959
0.000822304
0.000572885
0.000361668
0.000166574
-1.17327e-05
-0.000172468
-0.000316502
-0.000444719
-0.00055788
-0.000656728
-0.000741982
-0.000814331
-0.000874421
-0.000922857
-0.000960199
-0.000986958
-0.00100359
-0.00101052
-0.00100809
-0.000996626
-0.000976396
-0.000947626
-0.000910494
-0.000865141
-0.000811668
-0.00075014
-0.000680593
-0.00060303
-0.000517431
-0.000423759
-0.000321957
-0.000211955
-9.36732e-05
3.29753e-05
0.000168072
0.000311692
0.0004639
0.000624748
0.00079426
0.000972428
0.00115921
0.00135453
0.00155828
0.0017703
0.00199034
0.00221815
0.00245338
0.00269563
0.00294442
0.00319922
0.0034594
0.00372425
0.00399298
0.00426475
0.00453862
0.0048136
0.00508859
0.00536244
0.00563394
0.0059018
0.00616473
0.00642137
0.00667036
0.00691032
0.00713988
0.00735767
0.00756239
0.00775277
0.00792763
0.00808585
0.00822644
0.00834852
0.00845133
0.00853424
0.0085968
0.00863871
0.00865985
0.00866029
0.00864026
0.00860017
0.00854061
0.00846231
0.00836617
0.0082532
0.00812454
0.00798144
0.00782524
0.00765735
0.00747922
0.00729234
0.0070982
0.0068983
0.0066941
0.00648693
0.00627807
0.0060699
0.00586467
0.00564801
0.00540614
0.00103101
0.000712744
0.000454443
0.000235747
3.37866e-05
-0.000150767
-0.000317121
-0.000466198
-0.000598936
-0.000716149
-0.000818631
-0.000907157
-0.000982463
-0.00104524
-0.00109615
-0.00113577
-0.00116466
-0.00118331
-0.00119215
-0.00119158
-0.00118192
-0.00116347
-0.00113645
-0.00110106
-0.00105743
-0.00100568
-0.000945855
-0.000877991
-0.000802085
-0.000718107
-0.000626006
-0.000525708
-0.000417123
-0.000300149
-0.000174679
-4.0605e-05
0.000102173
0.000253746