/*--------------------------------*- C++ -*----------------------------------*\
| =========                 |                                                 |
| \\      /  F ield         | OpenFOAM: The Open Source CFD Toolbox           |
|  \\    /   O peration     | Version:  2512                                  |
|   \\  /    A nd           | Website:  www.openfoam.com                      |
|    \\/     M anipulation  |                                                 |
\*---------------------------------------------------------------------------*/
FoamFile
{
    version     2.0;
    format      ascii;
    arch        "LSB;label=32;scalar=64";
    class       surfaceScalarField;
    location    "0.26";
    object      phi;
}
// * * * * * * * * * * * * * * * * * * * * * * * * * * * * * * * * * * * * * //

dimensions      [0 3 -1 0 0 0 0];

oriented        oriented;

internalField   nonuniform List<scalar> 
19800
(
6.40898e-11
-6.40709e-11
1.85963e-10
-1.21862e-10
2.91234e-10
-1.05275e-10
3.40702e-10
-4.94626e-11
3.14553e-10
2.61372e-11
2.04814e-10
1.09739e-10
9.93182e-12
1.94875e-10
-2.67856e-10
2.77788e-10
-6.24406e-10
3.56546e-10
-1.05434e-09
4.29936e-10
-1.55171e-09
4.97377e-10
-2.11037e-09
5.58656e-10
-2.72417e-09
6.13789e-10
-3.38707e-09
6.62892e-10
-4.09324e-09
7.06164e-10
-4.83709e-09
7.43856e-10
-5.61333e-09
7.76249e-10
-6.41698e-09
8.03648e-10
-7.24333e-09
8.26356e-10
-8.08799e-09
8.44655e-10
-8.9468e-09
8.58813e-10
-9.81588e-09
8.69089e-10
-1.06916e-08
8.75716e-10
-1.15705e-08
8.78916e-10
-1.24494e-08
8.78905e-10
-1.33253e-08
8.75851e-10
-1.41952e-08
8.69891e-10
-1.50563e-08
8.61168e-10
-1.59061e-08
8.49806e-10
-1.6742e-08
8.35891e-10
-1.75615e-08
8.19499e-10
-1.83623e-08
8.00703e-10
-1.91418e-08
7.79558e-10
-1.98979e-08
7.56091e-10
-2.06282e-08
7.30328e-10
-2.13305e-08
7.02301e-10
-2.20025e-08
6.72034e-10
-2.26421e-08
6.39535e-10
-2.32469e-08
6.04813e-10
-2.38148e-08
5.6789e-10
-2.43436e-08
5.28794e-10
-2.48311e-08
4.87549e-10
-2.52753e-08
4.44186e-10
-2.56741e-08
3.98745e-10
-2.60254e-08
3.51287e-10
-2.63272e-08
3.01891e-10
-2.65779e-08
2.50642e-10
-2.67755e-08
1.97646e-10
-2.69186e-08
1.43025e-10
-2.70055e-08
8.69105e-11
-2.70349e-08
2.94658e-11
-2.70058e-08
-2.91246e-11
-2.69172e-08
-8.8657e-11
-2.67683e-08
-1.48902e-10
-2.65586e-08
-2.09616e-10
-2.62881e-08
-2.70538e-10
-2.59567e-08
-3.3138e-10
-2.55649e-08
-3.91839e-10
-2.51133e-08
-4.51596e-10
-2.4603e-08
-5.10314e-10
-2.40353e-08
-5.67643e-10
-2.34121e-08
-6.23229e-10
-2.27354e-08
-6.76704e-10
-2.20077e-08
-7.27699e-10
-2.12319e-08
-7.75848e-10
-2.04111e-08
-8.20786e-10
-1.95489e-08
-8.62147e-10
-1.86493e-08
-8.99579e-10
-1.77166e-08
-9.3275e-10
-1.67553e-08
-9.61341e-10
-1.57702e-08
-9.85056e-10
-1.47666e-08
-1.00362e-09
-1.37498e-08
-1.0168e-09
-1.27254e-08
-1.02438e-09
-1.16992e-08
-1.02617e-09
-1.06772e-08
-1.02204e-09
-9.66532e-09
-1.01189e-09
-8.66967e-09
-9.95649e-10
-7.69636e-09
-9.73307e-10
-6.75147e-09
-9.44889e-10
-5.84101e-09
-9.10461e-10
-4.97088e-09
-8.70133e-10
-4.14682e-09
-8.24062e-10
-3.37436e-09
-7.72459e-10
-2.65878e-09
-7.15587e-10
-2.00502e-09
-6.53757e-10
-1.41768e-09
-5.87343e-10
-9.00887e-10
-5.1679e-10
-4.5825e-10
-4.42638e-10
-9.27143e-11
-3.65539e-10
1.93596e-10
-2.86316e-10
3.99614e-10
-2.06021e-10
5.2568e-10
-1.26064e-10
5.74122e-10
-4.84394e-11
5.50151e-10
2.39684e-11
4.63356e-10
8.67901e-11
3.29986e-10
1.33367e-10
1.76838e-10
1.53146e-10
4.75892e-11
1.29244e-10
4.75874e-11
1.18678e-10
-1.82735e-10
2.86016e-10
-2.89231e-10
3.87063e-10
-2.06317e-10
3.48098e-10
-1.04943e-11
1.25672e-10
2.48578e-10
-3.02941e-10
5.38347e-10
-9.45939e-10
8.37884e-10
-1.80217e-09
1.13401e-09
-2.86425e-09
1.41862e-09
-4.12106e-09
1.68675e-09
-5.55918e-09
1.93549e-09
-7.16387e-09
2.16336e-09
-8.91984e-09
2.36976e-09
-1.08117e-08
2.55472e-09
-1.28241e-08
2.71864e-09
-1.49425e-08
2.86218e-09
-1.71524e-08
2.98616e-09
-1.94402e-08
3.09151e-09
-2.17931e-08
3.1792e-09
-2.41986e-08
3.25019e-09
-2.66452e-08
3.3054e-09
-2.91219e-08
3.34574e-09
-3.16183e-08
3.37206e-09
-3.41245e-08
3.38514e-09
-3.66313e-08
3.38569e-09
-3.91298e-08
3.37434e-09
-4.16116e-08
3.35169e-09
-4.40686e-08
3.31821e-09
-4.64931e-08
3.27435e-09
-4.88777e-08
3.22048e-09
-5.12151e-08
3.1569e-09
-5.34983e-08
3.08389e-09
-5.57204e-08
3.00164e-09
-5.78747e-08
2.91033e-09
-5.99544e-08
2.81009e-09
-6.19532e-08
2.70105e-09
-6.38644e-08
2.58329e-09
-6.56818e-08
2.45691e-09
-6.7399e-08
2.32197e-09
-6.90097e-08
2.17858e-09
-7.05077e-08
2.02685e-09
-7.18871e-08
1.86691e-09
-7.31418e-08
1.69893e-09
-7.42662e-08
1.52309e-09
-7.52545e-08
1.33966e-09
-7.61016e-08
1.14893e-09
-7.68022e-08
9.51249e-10
-7.73516e-08
7.47044e-10
-7.77453e-08
5.36796e-10
-7.79795e-08
3.21057e-10
-7.80505e-08
1.00456e-10
-7.79553e-08
-1.24295e-10
-7.76916e-08
-3.5241e-10
-7.72574e-08
-5.83035e-10
-7.66518e-08
-8.15229e-10
-7.58744e-08
-1.04798e-09
-7.49255e-08
-1.28021e-09
-7.38066e-08
-1.51077e-09
-7.25198e-08
-1.73843e-09
-7.10681e-08
-1.96196e-09
-6.94557e-08
-2.18005e-09
-6.76876e-08
-2.39134e-09
-6.57698e-08
-2.59449e-09
-6.37094e-08
-2.78811e-09
-6.15144e-08
-2.97082e-09
-5.9194e-08
-3.14125e-09
-5.6758e-08
-3.29808e-09
-5.42176e-08
-3.43998e-09
-5.15847e-08
-3.56572e-09
-4.88719e-08
-3.67413e-09
-4.60928e-08
-3.76409e-09
-4.32619e-08
-3.83462e-09
-4.03939e-08
-3.88479e-09
-3.75044e-08
-3.91384e-09
-3.46094e-08
-3.92113e-09
-3.17254e-08
-3.90614e-09
-2.88687e-08
-3.8685e-09
-2.60564e-08
-3.80801e-09
-2.33051e-08
-3.72463e-09
-2.06315e-08
-3.61847e-09
-1.80521e-08
-3.48983e-09
-1.55831e-08
-3.33917e-09
-1.324e-08
-3.16716e-09
-1.10378e-08
-2.97465e-09
-8.99066e-09
-2.76269e-09
-7.11182e-09
-2.53259e-09
-5.41328e-09
-2.28589e-09
-3.90562e-09
-2.02445e-09
-2.59777e-09
-1.75049e-09
-1.49657e-09
-1.46674e-09
-6.06313e-10
-1.17658e-09
7.19481e-11
-8.84281e-10
5.41318e-10
-5.95435e-10
8.10356e-10
-3.17481e-10
8.94983e-10
-6.06614e-11
8.21025e-10
1.6075e-10
6.27659e-10
3.26738e-10
3.71374e-10
4.09426e-10
1.28861e-10
3.71753e-10
1.76448e-10
1.05968e-10
-2.88708e-10
2.06336e-10
-3.89594e-10
1.72871e-10
-1.72873e-10
-7.946e-11
2.41836e-10
-6.05099e-10
7.74206e-10
-1.43475e-09
1.368e-09
-2.58152e-09
1.98465e-09
-4.04585e-09
2.59834e-09
-5.81938e-09
3.19216e-09
-7.88779e-09
3.75514e-09
-1.02328e-08
4.28051e-09
-1.28338e-08
4.76433e-09
-1.56687e-08
5.20464e-09
-1.87148e-08
5.60088e-09
-2.19496e-08
5.9534e-09
-2.53506e-08
6.26319e-09
-2.88961e-08
6.53168e-09
-3.25651e-08
6.76054e-09
-3.63375e-08
6.95158e-09
-4.0194e-08
7.10667e-09
-4.41162e-08
7.22766e-09
-4.80868e-08
7.31636e-09
-5.20893e-08
7.37449e-09
-5.61078e-08
7.40365e-09
-6.01274e-08
7.40533e-09
-6.4134e-08
7.38087e-09
-6.81137e-08
7.33145e-09
-7.20537e-08
7.25816e-09
-7.59413e-08
7.16192e-09
-7.97643e-08
7.04354e-09
-8.35111e-08
6.9037e-09
-8.71702e-08
6.74297e-09
-9.07304e-08
6.56184e-09
-9.41807e-08
6.3607e-09
-9.75105e-08
6.13989e-09
-1.00709e-07
5.8997e-09
-1.03766e-07
5.64036e-09
-1.06671e-07
5.36212e-09
-1.09415e-07
5.06519e-09
-1.11986e-07
4.74983e-09
-1.14375e-07
4.41631e-09
-1.16573e-07
4.06498e-09
-1.18571e-07
3.69621e-09
-1.20358e-07
3.31051e-09
-1.21927e-07
2.90843e-09
-1.23269e-07
2.49067e-09
-1.24375e-07
2.05804e-09
-1.2524e-07
1.61147e-09
-1.25855e-07
1.15204e-09
-1.26215e-07
6.80994e-10
-1.26314e-07
1.9971e-10
-1.26148e-07
-2.90256e-10
-1.25714e-07
-7.87185e-10
-1.25007e-07
-1.2892e-09
-1.24028e-07
-1.79428e-09
-1.22776e-07
-2.30023e-09
-1.21252e-07
-2.8047e-09
-1.19457e-07
-3.30522e-09
-1.17396e-07
-3.79919e-09
-1.15075e-07
-4.2839e-09
-1.12498e-07
-4.75656e-09
-1.09675e-07
-5.21428e-09
-1.06615e-07
-5.65417e-09
-1.0333e-07
-6.07326e-09
-9.98324e-08
-6.46862e-09
-9.61364e-08
-6.83734e-09
-9.22579e-08
-7.17656e-09
-8.82143e-08
-7.4835e-09
-8.40245e-08
-7.75553e-09
-7.97085e-08
-7.99014e-09
-7.52877e-08
-8.18498e-09
-7.07843e-08
-8.33793e-09
-6.6222e-08
-8.4471e-09
-6.16251e-08
-8.51084e-09
-5.70184e-08
-8.52778e-09
-5.24277e-08
-8.49686e-09
-4.78788e-08
-8.41735e-09
-4.3398e-08
-8.28882e-09
-3.90114e-08
-8.11123e-09
-3.4745e-08
-7.88488e-09
-3.06244e-08
-7.61046e-09
-2.66745e-08
-7.28907e-09
-2.29195e-08
-6.92219e-09
-1.93823e-08
-6.51179e-09
-1.60848e-08
-6.06027e-09
-1.30468e-08
-5.57058e-09
-1.02865e-08
-5.04622e-09
-7.8195e-09
-4.4914e-09
-5.6588e-09
-3.91119e-09
-3.81382e-09
-3.31172e-09
-2.28991e-09
-2.70049e-09
-1.08731e-09
-2.08687e-09
-1.99956e-10
-1.48279e-09
3.862e-10
-9.03645e-10
6.95258e-10
-3.69727e-10
7.63997e-10
9.20111e-11
6.45011e-10
4.45724e-10
4.09988e-10
6.44446e-10
1.5272e-10
6.2902e-10
3.29167e-10
5.11376e-11
-3.39839e-10
1.31225e-11
-3.51578e-10
-2.39177e-10
7.94334e-11
-7.90645e-10
7.93307e-10
-1.69729e-09
1.68085e-09
-2.99198e-09
2.66269e-09
-4.68946e-09
3.68212e-09
-6.79069e-09
4.69959e-09
-9.28648e-09
5.68795e-09
-1.21603e-08
6.62896e-09
-1.53905e-08
7.51072e-09
-1.89521e-08
8.32592e-09
-2.2818e-08
9.07053e-09
-2.696e-08
9.74286e-09
-3.13494e-08
1.03428e-08
-3.59579e-08
1.08716e-08
-4.07573e-08
1.13311e-08
-4.57205e-08
1.17237e-08
-5.0821e-08
1.20522e-08
-5.60337e-08
1.23193e-08
-6.13343e-08
1.25282e-08
-6.66995e-08
1.26816e-08
-7.21073e-08
1.27823e-08
-7.75365e-08
1.28329e-08
-8.29671e-08
1.28359e-08
-8.83796e-08
1.27934e-08
-9.37557e-08
1.27075e-08
-9.90775e-08
1.258e-08
-1.04328e-07
1.24125e-08
-1.09491e-07
1.22062e-08
-1.1455e-07
1.19625e-08
-1.19489e-07
1.16823e-08
-1.24293e-07
1.13665e-08
-1.28948e-07
1.10157e-08
-1.33439e-07
1.06307e-08
-1.37752e-07
1.0212e-08
-1.41871e-07
9.75993e-09
-1.45784e-07
9.2751e-09
-1.49477e-07
8.75793e-09
-1.52936e-07
8.20889e-09
-1.56148e-07
7.62855e-09
-1.59101e-07
7.01754e-09
-1.61781e-07
6.37659e-09
-1.64177e-07
5.70661e-09
-1.66277e-07
5.00863e-09
-1.68071e-07
4.2839e-09
-1.69546e-07
3.53386e-09
-1.70695e-07
2.76018e-09
-1.71508e-07
1.96475e-09
-1.71977e-07
1.14974e-09
-1.72095e-07
3.17576e-10
-1.71856e-07
-5.29061e-10
-1.71256e-07
-1.3872e-09
-1.70291e-07
-2.2536e-09
-1.68961e-07
-3.12476e-09
-1.67264e-07
-3.99691e-09
-1.65203e-07
-4.86605e-09
-1.6278e-07
-5.72795e-09
-1.60001e-07
-6.57816e-09
-1.56873e-07
-7.41207e-09
-1.53405e-07
-8.22489e-09
-1.49607e-07
-9.01176e-09
-1.45494e-07
-9.76771e-09
-1.41079e-07
-1.04877e-08
-1.36381e-07
-1.11669e-08
-1.31418e-07
-1.18002e-08
-1.26212e-07
-1.23828e-08
-1.20785e-07
-1.291e-08
-1.15164e-07
-1.33774e-08
-1.09373e-07
-1.37807e-08
-1.03442e-07
-1.4116e-08
-9.74003e-08
-1.43796e-08
-9.12789e-08
-1.45685e-08
-8.51099e-08
-1.46798e-08
-7.89264e-08
-1.47113e-08
-7.27621e-08
-1.46612e-08
-6.66512e-08
-1.45282e-08
-6.06282e-08
-1.43118e-08
-5.47274e-08
-1.4012e-08
-4.89831e-08
-1.36292e-08
-4.34287e-08
-1.31649e-08
-3.80969e-08
-1.26209e-08
-3.30191e-08
-1.19999e-08
-2.82254e-08
-1.13055e-08
-2.37437e-08
-1.0542e-08
-1.95998e-08
-9.71442e-09
-1.58169e-08
-8.82917e-09
-1.24146e-08
-7.89365e-09
-9.40907e-09
-6.91677e-09
-6.81159e-09
-5.9092e-09
-4.62819e-09
-4.88389e-09
-2.85831e-09
-3.85675e-09
-1.49355e-09
-2.84755e-09
-5.15998e-10
-1.8812e-09
1.03739e-10
-9.89461e-10
4.0884e-10
-2.13086e-10
4.58996e-10
3.95561e-10
3.33339e-10
7.70099e-10
1.3432e-10
8.28039e-10
4.63487e-10
-2.3621e-11
-3.16228e-10
-2.45488e-10
-1.29701e-10
-7.73516e-10
6.07452e-10
-1.68386e-09
1.70365e-09
-3.02778e-09
3.02478e-09
-4.83574e-09
4.47065e-09
-7.12112e-09
5.9675e-09
-9.88373e-09
7.46219e-09
-1.31128e-08
8.91707e-09
-1.67899e-08
1.0306e-08
-2.08904e-08
1.16112e-08
-2.5386e-08
1.28215e-08
-3.02457e-08
1.39302e-08
-3.54367e-08
1.49339e-08
-4.09257e-08
1.58318e-08
-4.66791e-08
1.66251e-08
-5.26638e-08
1.73158e-08
-5.88472e-08
1.79071e-08
-6.51977e-08
1.84027e-08
-7.16847e-08
1.88064e-08
-7.82788e-08
1.91223e-08
-8.49516e-08
1.93544e-08
-9.16761e-08
1.95068e-08
-9.84263e-08
1.9583e-08
-1.05177e-07
1.95868e-08
-1.11905e-07
1.95212e-08
-1.18587e-07
1.93892e-08
-1.252e-07
1.91935e-08
-1.31724e-07
1.89364e-08
-1.38138e-07
1.862e-08
-1.44421e-07
1.82461e-08
-1.50555e-07
1.78162e-08
-1.56521e-07
1.73316e-08
-1.62298e-07
1.67936e-08
-1.67871e-07
1.62031e-08
-1.7322e-07
1.55609e-08
-1.78328e-07
1.48679e-08
-1.83177e-07
1.41248e-08
-1.87752e-07
1.33324e-08
-1.92035e-07
1.24916e-08
-1.96009e-07
1.16033e-08
-1.9966e-07
1.06685e-08
-2.02972e-07
9.68836e-09
-2.0593e-07
8.6644e-09
-2.08519e-07
7.59827e-09
-2.10727e-07
6.49191e-09
-2.12541e-07
5.34757e-09
-2.13949e-07
4.16784e-09
-2.1494e-07
2.95567e-09
-2.15504e-07
1.71437e-09
-2.15634e-07
4.47665e-10
-2.15323e-07
-8.40339e-10
-2.14565e-07
-2.14513e-09
-2.13357e-07
-3.4618e-09
-2.11697e-07
-4.78503e-09
-2.09585e-07
-6.10912e-09
-2.07023e-07
-7.42804e-09
-2.04015e-07
-8.7354e-09
-2.00569e-07
-1.00245e-08
-1.96692e-07
-1.12885e-08
-1.92397e-07
-1.252e-08
-1.87697e-07
-1.3712e-08
-1.82608e-07
-1.48568e-08
-1.77149e-07
-1.5947e-08
-1.7134e-07
-1.69752e-08
-1.65207e-07
-1.79339e-08
-1.58773e-07
-1.8816e-08
-1.52069e-07
-1.96144e-08
-1.45124e-07
-2.03225e-08
-1.37971e-07
-2.09339e-08
-1.30644e-07
-2.14429e-08
-1.23179e-07
-2.1844e-08
-1.15615e-07
-2.21325e-08
-1.07991e-07
-2.23043e-08
-1.00346e-07
-2.23562e-08
-9.27218e-08
-2.22854e-08
-8.51598e-08
-2.20902e-08
-7.77018e-08
-2.17698e-08
-7.03895e-08
-2.13243e-08
-6.32642e-08
-2.07545e-08
-5.63663e-08
-2.00627e-08
-4.97354e-08
-1.92518e-08
-4.34092e-08
-1.83261e-08
-3.74237e-08
-1.72911e-08
-3.18124e-08
-1.61533e-08
-2.6606e-08
-1.49208e-08
-2.18318e-08
-1.36034e-08
-1.7513e-08
-1.22124e-08
-1.36682e-08
-1.07616e-08
-1.03105e-08
-9.26696e-09
-7.44635e-09
-7.74801e-09
-5.07494e-09
-6.22815e-09
-3.18648e-09
-4.73602e-09
-1.76082e-09
-3.30685e-09
-7.65807e-10
-1.98447e-09
-1.55259e-10
-8.23641e-10
1.33245e-10
1.07048e-10
1.80904e-10
7.22438e-10
9.13344e-11
9.17608e-10
5.54821e-10
-1.07534e-10
-2.0869e-10
-5.3891e-10
3.01672e-10
-1.37806e-09
1.4466e-09
-2.68663e-09
3.01223e-09
-4.50656e-09
4.84471e-09
-6.86225e-09
6.82635e-09
-9.76308e-09
8.86833e-09
-1.32059e-08
1.0905e-08
-1.71776e-08
1.28887e-08
-2.16569e-08
1.47853e-08
-2.66168e-08
1.65712e-08
-3.20259e-08
1.82306e-08
-3.78497e-08
1.9754e-08
-4.40519e-08
2.11361e-08
-5.05951e-08
2.2375e-08
-5.74416e-08
2.34715e-08
-6.45537e-08
2.4428e-08
-7.18946e-08
2.5248e-08
-7.94279e-08
2.5936e-08
-8.71186e-08
2.64971e-08
-9.49327e-08
2.69363e-08
-1.02837e-07
2.7259e-08
-1.10801e-07
2.74702e-08
-1.18793e-07
2.75751e-08
-1.26784e-07
2.75781e-08
-1.34747e-07
2.74838e-08
-1.42653e-07
2.7296e-08
-1.50478e-07
2.70183e-08
-1.58196e-07
2.66541e-08
-1.65782e-07
2.62061e-08
-1.73213e-07
2.56768e-08
-1.80465e-07
2.50684e-08
-1.87516e-07
2.43828e-08
-1.94344e-07
2.36217e-08
-2.00928e-07
2.27864e-08
-2.07245e-07
2.18784e-08
-2.13276e-07
2.08987e-08
-2.19e-07
1.98487e-08
-2.24397e-07
1.87293e-08
-2.29447e-07
1.75421e-08
-2.34132e-07
1.62882e-08
-2.38433e-07
1.49693e-08
-2.42332e-07
1.35871e-08
-2.45811e-07
1.21439e-08
-2.48855e-07
1.06419e-08
-2.51447e-07
9.08409e-09
-2.53573e-07
7.47362e-09
-2.55219e-07
5.8142e-09
-2.56374e-07
4.11002e-09
-2.57025e-07
2.36579e-09
-2.57164e-07
5.86749e-10
-2.56783e-07
-1.22133e-09
-2.55876e-07
-3.05211e-09
-2.54439e-07
-4.89871e-09
-2.5247e-07
-6.7537e-09
-2.4997e-07
-8.60914e-09
-2.46942e-07
-1.04566e-08
-2.4339e-07
-1.22872e-08
-2.39323e-07
-1.40917e-08
-2.34751e-07
-1.58605e-08
-2.29687e-07
-1.75835e-08
-2.24149e-07
-1.92506e-08
-2.18154e-07
-2.08517e-08
-2.11725e-07
-2.23762e-08
-2.04886e-07
-2.38139e-08
-1.97665e-07
-2.51546e-08
-1.90093e-07
-2.63883e-08
-1.82202e-07
-2.75054e-08
-1.74028e-07
-2.84967e-08
-1.65608e-07
-2.93534e-08
-1.56984e-07
-3.00675e-08
-1.48196e-07
-3.06317e-08
-1.39289e-07
-3.10394e-08
-1.30308e-07
-3.12851e-08
-1.213e-07
-3.13642e-08
-1.12312e-07
-3.12732e-08
-1.03393e-07
-3.10097e-08
-9.45902e-08
-3.05726e-08
-8.59522e-08
-2.99622e-08
-7.75269e-08
-2.91799e-08
-6.93607e-08
-2.82289e-08
-6.14991e-08
-2.71134e-08
-5.39856e-08
-2.58396e-08
-4.68614e-08
-2.44153e-08
-4.01648e-08
-2.28499e-08
-3.39308e-08
-2.11548e-08
-2.81904e-08
-1.93438e-08
-2.29698e-08
-1.7433e-08
-1.82899e-08
-1.54414e-08
-1.41656e-08
-1.33913e-08
-1.06041e-08
-1.13095e-08
-7.60484e-09
-9.22741e-09
-5.15767e-09
-7.18319e-09
-3.24177e-09
-5.22274e-09
-1.82426e-09
-3.40199e-09
-8.58598e-10
-1.78932e-09
-2.82916e-10
-4.68637e-10
-1.81188e-11
4.57637e-10
3.47506e-11
8.64738e-10
5.89573e-10
-1.94623e-10
-1.40749e-11
-8.47981e-10
9.55039e-10
-2.01795e-09
2.61657e-09
-3.74841e-09
4.74268e-09
-6.06885e-09
7.16515e-09
-8.99496e-09
9.75247e-09
-1.25299e-08
1.24033e-08
-1.6666e-08
1.50411e-08
-2.13863e-08
1.7609e-08
-2.66666e-08
2.00656e-08
-3.24769e-08
2.23814e-08
-3.87826e-08
2.45364e-08
-4.55464e-08
2.65178e-08
-5.27286e-08
2.83182e-08
-6.02883e-08
2.99348e-08
-6.81843e-08
3.13675e-08
-7.63751e-08
3.26188e-08
-8.482e-08
3.36928e-08
-9.34787e-08
3.45948e-08
-1.02312e-07
3.53305e-08
-1.11282e-07
3.59065e-08
-1.20353e-07
3.63291e-08
-1.29487e-07
3.66047e-08
-1.38652e-07
3.67396e-08
-1.47813e-07
3.67396e-08
-1.5694e-07
3.66103e-08
-1.66e-07
3.63568e-08
-1.74966e-07
3.59836e-08
-1.83807e-07
3.5495e-08
-1.92495e-07
3.48947e-08
-2.01004e-07
3.41859e-08
-2.09307e-07
3.33715e-08
-2.17379e-07
3.24541e-08
-2.25193e-07
3.14359e-08
-2.32725e-07
3.03188e-08
-2.39952e-07
2.91047e-08
-2.46848e-07
2.77953e-08
-2.53392e-07
2.63922e-08
-2.5956e-07
2.48971e-08
-2.65329e-07
2.33118e-08
-2.70679e-07
2.16382e-08
-2.75589e-07
1.98786e-08
-2.80037e-07
1.80354e-08
-2.84005e-07
1.61115e-08
-2.87473e-07
1.41103e-08
-2.90425e-07
1.20356e-08
-2.92843e-07
9.89182e-09
-2.94712e-07
7.68385e-09
-2.9602e-07
5.41735e-09
-2.96753e-07
3.09861e-09
-2.969e-07
7.34617e-10
-2.96455e-07
-1.66695e-09
-2.95409e-07
-4.09767e-09
-2.9376e-07
-6.54844e-09
-2.91504e-07
-9.00943e-09
-2.88643e-07
-1.14702e-08
-2.8518e-07
-1.39196e-08
-2.81121e-07
-1.63459e-08
-2.76476e-07
-1.8737e-08
-2.71256e-07
-2.10802e-08
-2.65477e-07
-2.33624e-08
-2.59158e-07
-2.55703e-08
-2.52319e-07
-2.76904e-08
-2.44986e-07
-2.97092e-08
-2.37186e-07
-3.16131e-08
-2.28952e-07
-3.33889e-08
-2.20317e-07
-3.50234e-08
-2.11319e-07
-3.6504e-08
-2.01997e-07
-3.78187e-08
-1.92394e-07
-3.89562e-08
-1.82555e-07
-3.99059e-08
-1.72529e-07
-4.06583e-08
-1.62363e-07
-4.12048e-08
-1.5211e-07
-4.15383e-08
-1.41822e-07
-4.16529e-08
-1.31551e-07
-4.15439e-08
-1.21352e-07
-4.12084e-08
-1.11279e-07
-4.06452e-08
-1.01387e-07
-3.98546e-08
-9.17281e-08
-3.88388e-08
-8.23552e-08
-3.76018e-08
-7.33188e-08
-3.61498e-08
-6.46676e-08
-3.44909e-08
-5.64474e-08
-3.26355e-08
-4.87009e-08
-3.05963e-08
-4.1467e-08
-2.83887e-08
-3.47801e-08
-2.60308e-08
-2.86693e-08
-2.35439e-08
-2.31578e-08
-2.09529e-08
-1.8262e-08
-1.82871e-08
-1.39907e-08
-1.55807e-08
-1.03442e-08
-1.2874e-08
-7.31282e-09
-1.02145e-08
-4.87654e-09
-7.65903e-09
-3.00339e-09
-5.27515e-09
-1.64855e-09
-3.14416e-09
-7.53196e-10
-1.36399e-09
-2.43363e-10
-5.21999e-11
-2.86353e-11
6.5001e-10
5.60939e-10
-2.81546e-10
2.67476e-10
-1.16105e-09
1.83454e-09
-2.67058e-09
4.1261e-09
-4.8349e-09
6.90702e-09
-7.66929e-09
9.99952e-09
-1.11788e-08
1.3262e-08
-1.53587e-08
1.65832e-08
-2.01953e-08
1.98777e-08
-2.56669e-08
2.30807e-08
-3.17455e-08
2.61442e-08
-3.83976e-08
2.90335e-08
-4.55855e-08
3.17244e-08
-5.32688e-08
3.4201e-08
-6.14046e-08
3.64541e-08
-6.99491e-08
3.84792e-08
-7.88577e-08
4.0276e-08
-8.80857e-08
4.18468e-08
-9.75889e-08
4.3196e-08
-1.07324e-07
4.43296e-08
-1.17248e-07
4.52543e-08
-1.27319e-07
4.59777e-08
-1.37497e-07
4.65074e-08
-1.47743e-07
4.6851e-08
-1.5802e-07
4.7016e-08
-1.6829e-07
4.70097e-08
-1.78518e-07
4.68387e-08
-1.88671e-07
4.65092e-08
-1.98714e-07
4.6027e-08
-2.08616e-07
4.53972e-08
-2.18346e-07
4.46245e-08
-2.27873e-07
4.3713e-08
-2.37168e-07
4.26664e-08
-2.46202e-07
4.14878e-08
-2.54946e-07
4.01802e-08
-2.63373e-07
3.87461e-08
-2.71456e-07
3.7188e-08
-2.79169e-07
3.5508e-08
-2.86485e-07
3.37085e-08
-2.9338e-07
3.17916e-08
-2.99828e-07
2.97597e-08
-3.05805e-07
2.76155e-08
-3.11288e-07
2.53619e-08
-3.16255e-07
2.30022e-08
-3.20684e-07
2.05402e-08
-3.24554e-07
1.79802e-08
-3.27845e-07
1.53273e-08
-3.30541e-07
1.25871e-08
-3.32623e-07
9.766e-09
-3.34077e-07
6.87128e-09
-3.34889e-07
3.91098e-09
-3.35048e-07
8.94022e-10
-3.34546e-07
-2.16977e-09
-3.33374e-07
-5.2697e-09
-3.31528e-07
-8.39418e-09
-3.29007e-07
-1.15307e-08
-3.25811e-07
-1.46661e-08
-3.21944e-07
-1.77862e-08
-3.17414e-07
-2.08763e-08
-3.1223e-07
-2.39208e-08
-3.06406e-07
-2.69039e-08
-2.9996e-07
-2.9809e-08
-2.9291e-07
-3.26193e-08
-2.85283e-07
-3.53179e-08
-2.77104e-07
-3.78877e-08
-2.68406e-07
-4.03116e-08
-2.59222e-07
-4.25728e-08
-2.49591e-07
-4.46549e-08
-2.39553e-07
-4.6542e-08
-2.29152e-07
-4.82191e-08
-2.18437e-07
-4.96718e-08
-2.07456e-07
-5.08869e-08
-1.96262e-07
-5.18525e-08
-1.84908e-07
-5.25579e-08
-1.73453e-07
-5.29941e-08
-1.61952e-07
-5.31536e-08
-1.50465e-07
-5.30309e-08
-1.39051e-07
-5.26224e-08
-1.2777e-07
-5.19264e-08
-1.16681e-07
-5.09437e-08
-1.05842e-07
-4.96772e-08
-9.5312e-08
-4.81321e-08
-8.51455e-08
-4.63164e-08
-7.53958e-08
-4.42406e-08
-6.61133e-08
-4.1918e-08
-5.73447e-08
-3.93649e-08
-4.91326e-08
-3.66009e-08
-4.15144e-08
-3.3649e-08
-3.45222e-08
-3.05361e-08
-2.81816e-08
-2.72935e-08
-2.2511e-08
-2.39576e-08
-1.75211e-08
-2.05706e-08
-1.32136e-08
-1.71815e-08
-9.58039e-09
-1.38477e-08
-6.60326e-09
-1.06362e-08
-4.25255e-09
-7.62586e-09
-2.48675e-09
-4.90997e-09
-1.25186e-09
-2.59888e-09
-4.8107e-10
-8.22995e-10
-9.45913e-11
2.63533e-10
4.6635e-10
-3.66605e-10
6.34078e-10
-1.4712e-09
2.93913e-09
-3.32161e-09
5.9765e-09
-5.9234e-09
9.50881e-09
-9.27672e-09
1.33528e-08
-1.33749e-08
1.73602e-08
-1.82041e-08
2.14124e-08
-2.37434e-08
2.5417e-08
-2.99656e-08
2.93029e-08
-3.68379e-08
3.30165e-08
-4.43229e-08
3.65185e-08
-5.23796e-08
3.97811e-08
-6.09642e-08
4.27856e-08
-7.00309e-08
4.55208e-08
-7.95329e-08
4.79812e-08
-8.94225e-08
5.01657e-08
-9.96521e-08
5.20765e-08
-1.10175e-07
5.37184e-08
-1.20943e-07
5.50981e-08
-1.31912e-07
5.62232e-08
-1.43036e-07
5.71022e-08
-1.54273e-07
5.7744e-08
-1.6558e-07
5.81576e-08
-1.76915e-07
5.83517e-08
-1.8824e-07
5.83346e-08
-1.99516e-07
5.81145e-08
-2.10705e-07
5.76986e-08
-2.21772e-07
5.70939e-08
-2.32682e-07
5.63065e-08
-2.43399e-07
5.5342e-08
-2.53892e-07
5.42055e-08
-2.64127e-07
5.29014e-08
-2.74073e-07
5.14338e-08
-2.83699e-07
4.98061e-08
-2.92974e-07
4.80217e-08
-3.0187e-07
4.60836e-08
-3.10357e-07
4.39947e-08
-3.18406e-07
4.17577e-08
-3.2599e-07
3.93756e-08
-3.33082e-07
3.68515e-08
-3.39655e-07
3.41888e-08
-3.45684e-07
3.13911e-08
-3.51144e-07
2.84627e-08
-3.56013e-07
2.54084e-08
-3.60266e-07
2.22337e-08
-3.63884e-07
1.89449e-08
-3.66846e-07
1.55491e-08
-3.69134e-07
1.20542e-08
-3.70732e-07
8.46937e-09
-3.71626e-07
4.80448e-09
-3.71802e-07
1.07061e-09
-3.71252e-07
-2.72009e-09
-3.69967e-07
-6.55442e-09
-3.67943e-07
-1.04181e-08
-3.65178e-07
-1.42958e-08
-3.61673e-07
-1.81712e-08
-3.57432e-07
-2.2027e-08
-3.52464e-07
-2.5845e-08
-3.46778e-07
-2.96063e-08
-3.40391e-07
-3.32913e-08
-3.3332e-07
-3.68799e-08
-3.25588e-07
-4.03514e-08
-3.1722e-07
-4.36851e-08
-3.08248e-07
-4.68601e-08
-2.98704e-07
-4.98554e-08
-2.88626e-07
-5.26506e-08
-2.78056e-07
-5.52257e-08
-2.67036e-07
-5.75612e-08
-2.55617e-07
-5.96386e-08
-2.43848e-07
-6.14405e-08
-2.31784e-07
-6.29509e-08
-2.19482e-07
-6.4155e-08
-2.07e-07
-6.504e-08
-1.94399e-07
-6.55948e-08
-1.81742e-07
-6.58104e-08
-1.69093e-07
-6.56802e-08
-1.56515e-07
-6.51997e-08
-1.44075e-07
-6.43672e-08
-1.31835e-07
-6.31836e-08
-1.19859e-07
-6.16526e-08
-1.0821e-07
-5.9781e-08
-9.69482e-08
-5.75786e-08
-8.61303e-08
-5.50584e-08
-7.58112e-08
-5.22371e-08
-6.60414e-08
-4.91347e-08
-5.6867e-08
-4.57753e-08
-4.83288e-08
-4.21872e-08
-4.04616e-08
-3.84032e-08
-3.32938e-08
-3.44613e-08
-2.68462e-08
-3.04052e-08
-2.11316e-08
-2.62852e-08
-1.61539e-08
-2.21593e-08
-1.19074e-08
-1.80941e-08
-8.3766e-09
-1.4167e-08
-5.53516e-09
-1.04673e-08
-3.34603e-09
-7.09909e-09
-1.76124e-09
-4.18368e-09
-7.222e-10
-1.86204e-09
-1.60552e-10
-2.98113e-10
3.05798e-10
-4.48881e-10
1.08296e-09
-1.77442e-09
4.26468e-09
-3.9622e-09
8.16426e-09
-6.99918e-09
1.25458e-08
-1.08703e-08
1.72239e-08
-1.55564e-08
2.20463e-08
-2.10339e-08
2.68898e-08
-2.72739e-08
3.16569e-08
-3.42426e-08
3.62716e-08
-4.19021e-08
4.0676e-08
-5.02105e-08
4.48269e-08
-5.91231e-08
4.86936e-08
-6.85925e-08
5.2255e-08
-7.85699e-08
5.54982e-08
-8.90054e-08
5.84167e-08
-9.98487e-08
6.10089e-08
-1.11049e-07
6.3277e-08
-1.22557e-07
6.52261e-08
-1.34322e-07
6.68636e-08
-1.46297e-07
6.81979e-08
-1.58434e-07
6.92387e-08
-1.70686e-07
6.9996e-08
-1.83008e-07
7.048e-08
-1.95357e-07
7.07007e-08
-2.0769e-07
7.06678e-08
-2.19966e-07
7.03906e-08
-2.32145e-07
6.98777e-08
-2.44189e-07
6.9137e-08
-2.56058e-07
6.81759e-08
-2.67717e-07
6.70009e-08
-2.79129e-07
6.56179e-08
-2.9026e-07
6.40324e-08
-3.01076e-07
6.22491e-08
-3.11542e-07
6.02723e-08
-3.21626e-07
5.81061e-08
-3.31297e-07
5.5754e-08
-3.40522e-07
5.32198e-08
-3.49271e-07
5.05068e-08
-3.57514e-07
4.76187e-08
-3.65221e-07
4.45593e-08
-3.72366e-07
4.13328e-08
-3.78918e-07
3.79439e-08
-3.84854e-07
3.43978e-08
-3.90146e-07
3.07004e-08
-3.9477e-07
2.68583e-08
-3.98705e-07
2.28794e-08
-4.01928e-07
1.87722e-08
-4.0442e-07
1.45464e-08
-4.06164e-07
1.0213e-08
-4.07143e-07
5.78408e-09
-4.07345e-07
1.27291e-09
-4.0676e-07
-3.30583e-09
-4.05378e-07
-7.93626e-09
-4.03195e-07
-1.26012e-08
-4.00208e-07
-1.72822e-08
-3.9642e-07
-2.19597e-08
-3.91834e-07
-2.6613e-08
-3.86458e-07
-3.12203e-08
-3.80306e-07
-3.57589e-08
-3.73392e-07
-4.02053e-08
-3.65736e-07
-4.45354e-08
-3.57363e-07
-4.87247e-08
-3.483e-07
-5.27481e-08
-3.38579e-07
-5.65807e-08
-3.28237e-07
-6.01976e-08
-3.17313e-07
-6.35743e-08
-3.05852e-07
-6.66868e-08
-2.93902e-07
-6.95118e-08
-2.81513e-07
-7.20274e-08
-2.68741e-07
-7.42126e-08
-2.55643e-07
-7.60483e-08
-2.42281e-07
-7.75171e-08
-2.28718e-07
-7.86034e-08
-2.15019e-07
-7.92941e-08
-2.0125e-07
-7.95786e-08
-1.87482e-07
-7.94489e-08
-1.73782e-07
-7.88999e-08
-1.60219e-07
-7.79295e-08
-1.46864e-07
-7.6539e-08
-1.33783e-07
-7.4733e-08
-1.21045e-07
-7.25196e-08
-1.08712e-07
-6.99108e-08
-9.68484e-08
-6.69225e-08
-8.55111e-08
-6.35745e-08
-7.47547e-08
-5.9891e-08
-6.4629e-08
-5.5901e-08
-5.51782e-08
-5.1638e-08
-4.64402e-08
-4.71412e-08
-3.84461e-08
-4.24553e-08
-3.12197e-08
-3.76316e-08
-2.47763e-08
-3.27286e-08
-1.91227e-08
-2.78129e-08
-1.42561e-08
-2.29607e-08
-1.01645e-08
-1.82586e-08
-6.82572e-09
-1.38061e-08
-4.20786e-09
-9.71695e-09
-2.26962e-09
-6.12193e-09
-9.61037e-10
-3.17062e-09
-2.25018e-10
-1.03413e-09
8.07795e-11
-5.28011e-10
1.61097e-09
-2.06861e-09
5.80528e-09
-4.58719e-09
1.06828e-08
-8.05314e-09
1.60118e-08
-1.24364e-08
2.16072e-08
-1.77054e-08
2.73154e-08
-2.38261e-08
3.30105e-08
-3.07611e-08
3.85919e-08
-3.84698e-08
4.39803e-08
-4.69081e-08
4.91144e-08
-5.60296e-08
5.39484e-08
-6.5785e-08
5.8449e-08
-7.61237e-08
6.25936e-08
-8.69934e-08
6.63679e-08
-9.83413e-08
6.97646e-08
-1.10114e-07
7.27817e-08
-1.22259e-07
7.54216e-08
-1.34723e-07
7.76899e-08
-1.47453e-07
7.95944e-08
-1.604e-07
8.11447e-08
-1.73513e-07
8.23515e-08
-1.86743e-07
8.32259e-08
-2.00042e-07
8.37795e-08
-2.13365e-07
8.40236e-08
-2.26667e-07
8.39691e-08
-2.39902e-07
8.36265e-08
-2.5303e-07
8.30057e-08
-2.66009e-07
8.21158e-08
-2.78798e-07
8.09651e-08
-2.91359e-07
7.95614e-08
-3.03652e-07
7.79115e-08
-3.15642e-07
7.60216e-08
-3.2729e-07
7.38974e-08
-3.38562e-07
7.1544e-08
-3.49421e-07
6.8966e-08
-3.59835e-07
6.6168e-08
-3.6977e-07
6.31542e-08
-3.79192e-07
5.99288e-08
-3.8807e-07
5.64963e-08
-3.96371e-07
5.28612e-08
-4.04067e-07
4.90286e-08
-4.11127e-07
4.50042e-08
-4.17524e-07
4.07941e-08
-4.23229e-07
3.64056e-08
-4.28217e-07
3.18466e-08
-4.32464e-07
2.71264e-08
-4.35947e-07
2.22552e-08
-4.38645e-07
1.72445e-08
-4.4054e-07
1.21074e-08
-4.41614e-07
6.85805e-09
-4.41853e-07
1.51232e-09
-4.41246e-07
-3.91253e-09
-4.39785e-07
-9.39775e-09
-4.37463e-07
-1.49231e-08
-4.34278e-07
-2.04669e-08
-4.30232e-07
-2.6006e-08
-4.25329e-07
-3.15161e-08
-4.19578e-07
-3.69715e-08
-4.12991e-07
-4.23457e-08
-4.05585e-07
-4.7611e-08
-3.97382e-07
-5.2739e-08
-3.88405e-07
-5.7701e-08
-3.78686e-07
-6.24675e-08
-3.68257e-07
-6.70093e-08
-3.57158e-07
-7.12971e-08
-3.4543e-07
-7.53021e-08
-3.33121e-07
-7.89961e-08
-3.20281e-07
-8.2352e-08
-3.06964e-07
-8.53437e-08
-2.9323e-07
-8.79469e-08
-2.79139e-07
-9.0139e-08
-2.64757e-07
-9.18994e-08
-2.5015e-07
-9.32101e-08
-2.35389e-07
-9.40557e-08
-2.20544e-07
-9.44236e-08
-2.05688e-07
-9.43046e-08
-1.90895e-07
-9.36926e-08
-1.76239e-07
-9.25854e-08
-1.61794e-07
-9.09845e-08
-1.47632e-07
-8.88954e-08
-1.33823e-07
-8.63278e-08
-1.20438e-07
-8.32958e-08
-1.07543e-07
-7.98182e-08
-9.51987e-08
-7.59185e-08
-8.34647e-08
-7.1625e-08
-7.2394e-08
-6.69716e-08
-6.20343e-08
-6.19977e-08
-5.2427e-08
-5.67485e-08
-4.36064e-08
-5.12759e-08
-3.55993e-08
-4.56388e-08
-2.84242e-08
-3.99037e-08
-2.20911e-08
-3.4146e-08
-1.6601e-08
-2.84508e-08
-1.19455e-08
-2.2914e-08
-8.10737e-09
-1.76442e-08
-5.06024e-09
-1.27641e-08
-2.76965e-09
-8.41251e-09
-1.19417e-09
-4.7461e-09
-2.87168e-10
-1.94113e-09
-2.06388e-10
-6.03921e-10
2.21488e-09
-2.35279e-09
7.55416e-09
-5.19383e-09
1.35239e-08
-9.08002e-09
1.98979e-08
-1.39669e-08
2.6494e-08
-1.98105e-08
3.3159e-08
-2.65663e-08
3.97663e-08
-3.41881e-08
4.62137e-08
-4.26277e-08
5.24199e-08
-5.18351e-08
5.83218e-08
-6.17583e-08
6.38716e-08
-7.23437e-08
6.90345e-08
-8.35368e-08
7.37867e-08
-9.52818e-08
7.8113e-08
-1.07523e-07
8.20057e-08
-1.20204e-07
8.54627e-08
-1.33269e-07
8.84868e-08
-1.46663e-07
9.1084e-08
-1.60332e-07
9.3263e-08
-1.74221e-07
9.50343e-08
-1.8828e-07
9.64098e-08
-2.02456e-07
9.74018e-08
-2.16699e-07
9.80231e-08
-2.30962e-07
9.82864e-08
-2.45197e-07
9.82038e-08
-2.59357e-07
9.77872e-08
-2.73399e-07
9.70476e-08
-2.87279e-07
9.59954e-08
-3.00954e-07
9.464e-08
-3.14382e-07
9.29901e-08
-3.27524e-07
9.10535e-08
-3.4034e-07
8.88375e-08
-3.52791e-07
8.63484e-08
-3.6484e-07
8.35923e-08
-3.76448e-07
8.05746e-08
-3.8758e-07
7.73004e-08
-3.98201e-07
7.37749e-08
-4.08275e-07
7.0003e-08
-4.17769e-07
6.59899e-08
-4.26649e-07
6.1741e-08
-4.34883e-07
5.72625e-08
-4.42439e-07
5.25608e-08
-4.49289e-07
4.76434e-08
-4.55402e-07
4.25186e-08
-4.60751e-07
3.7196e-08
-4.65311e-07
3.16862e-08
-4.69057e-07
2.60012e-08
-4.71967e-07
2.01545e-08
-4.7402e-07
1.41612e-08
-4.752e-07
8.03796e-09
-4.75491e-07
1.80312e-09
-4.7488e-07
-4.52327e-09
-4.73359e-07
-1.09194e-08
-4.7092e-07
-1.73619e-08
-4.67561e-07
-2.38256e-08
-4.63284e-07
-3.02836e-08
-4.58092e-07
-3.67079e-08
-4.51995e-07
-4.30687e-08
-4.45005e-07
-4.93352e-08
-4.37141e-07