/*--------------------------------*- C++ -*----------------------------------*\
| =========                 |                                                 |
| \\      /  F ield         | OpenFOAM: The Open Source CFD Toolbox           |
|  \\    /   O peration     | Version:  2512                                  |
|   \\  /    A nd           | Website:  www.openfoam.com                      |
|    \\/     M anipulation  |                                                 |
\*---------------------------------------------------------------------------*/
FoamFile
{
    version     2.0;
    format      ascii;
    arch        "LSB;label=32;scalar=64";
    class       volVectorField;
    location    "0.26";
    object      U;
}
// * * * * * * * * * * * * * * * * * * * * * * * * * * * * * * * * * * * * * //

dimensions      [0 1 -1 0 0 0 0];

internalField   nonuniform List<vector> 
10000
(
(2.82231e-06 -3.25697e-06 0)
(1.24547e-05 -6.22034e-06 0)
(2.4501e-05 -5.82422e-06 0)
(3.30656e-05 -3.89269e-06 0)
(3.45465e-05 -1.254e-06 0)
(2.78748e-05 1.60772e-06 0)
(1.26595e-05 4.45718e-06 0)
(-1.10293e-05 7.17315e-06 0)
(-4.2848e-05 9.70353e-06 0)
(-8.22913e-05 1.20194e-05 0)
(-0.000128787 1.41135e-05 0)
(-0.000181725 1.5991e-05 0)
(-0.000240487 1.7662e-05 0)
(-0.000304459 1.91348e-05 0)
(-0.000373045 2.04185e-05 0)
(-0.000445672 2.15258e-05 0)
(-0.000521797 2.24699e-05 0)
(-0.000600907 2.32627e-05 0)
(-0.000682517 2.39158e-05 0)
(-0.00076617 2.44376e-05 0)
(-0.00085144 2.48359e-05 0)
(-0.000937925 2.51206e-05 0)
(-0.00102525 2.53006e-05 0)
(-0.00111306 2.53833e-05 0)
(-0.00120103 2.53755e-05 0)
(-0.00128884 2.52817e-05 0)
(-0.0013762 2.51054e-05 0)
(-0.00146282 2.48514e-05 0)
(-0.00154843 2.45238e-05 0)
(-0.00163278 2.41252e-05 0)
(-0.00171561 2.36575e-05 0)
(-0.00179668 2.31233e-05 0)
(-0.00187575 2.2524e-05 0)
(-0.00195259 2.18593e-05 0)
(-0.00202696 2.1129e-05 0)
(-0.00209865 2.03341e-05 0)
(-0.00216742 1.94755e-05 0)
(-0.00223305 1.85536e-05 0)
(-0.00229532 1.75676e-05 0)
(-0.00235401 1.65178e-05 0)
(-0.0024089 1.54044e-05 0)
(-0.00245977 1.42278e-05 0)
(-0.0025064 1.29885e-05 0)
(-0.0025486 1.16872e-05 0)
(-0.00258615 1.03255e-05 0)
(-0.00261885 8.90568e-06 0)
(-0.00264652 7.43009e-06 0)
(-0.00266898 5.90129e-06 0)
(-0.00268605 4.32211e-06 0)
(-0.00269758 2.69604e-06 0)
(-0.00270342 1.02798e-06 0)
(-0.00270346 -6.76304e-07 0)
(-0.00269759 -2.41077e-06 0)
(-0.00268573 -4.16897e-06 0)
(-0.00266781 -5.94422e-06 0)
(-0.0026438 -7.72908e-06 0)
(-0.0026137 -9.51485e-06 0)
(-0.00257753 -1.12921e-05 0)
(-0.00253533 -1.30512e-05 0)
(-0.00248721 -1.47819e-05 0)
(-0.00243327 -1.64738e-05 0)
(-0.00237368 -1.81162e-05 0)
(-0.00230863 -1.96983e-05 0)
(-0.00223835 -2.12087e-05 0)
(-0.00216309 -2.26364e-05 0)
(-0.00208318 -2.39698e-05 0)
(-0.00199894 -2.51975e-05 0)
(-0.00191076 -2.63086e-05 0)
(-0.00181904 -2.72933e-05 0)
(-0.00172422 -2.8142e-05 0)
(-0.00162678 -2.88456e-05 0)
(-0.00152722 -2.93953e-05 0)
(-0.00142607 -2.97837e-05 0)
(-0.00132387 -3.00038e-05 0)
(-0.00122121 -3.00501e-05 0)
(-0.00111866 -2.99184e-05 0)
(-0.00101682 -2.96057e-05 0)
(-0.000916294 -2.91097e-05 0)
(-0.000817702 -2.84294e-05 0)
(-0.000721648 -2.75651e-05 0)
(-0.000628739 -2.65181e-05 0)
(-0.000539573 -2.52911e-05 0)
(-0.00045473 -2.38882e-05 0)
(-0.000374777 -2.2315e-05 0)
(-0.000300255 -2.05784e-05 0)
(-0.000231677 -1.8686e-05 0)
(-0.000169522 -1.6647e-05 0)
(-0.000114228 -1.44723e-05 0)
(-6.61839e-05 -1.21751e-05 0)
(-2.57216e-05 -9.7716e-06 0)
(6.90042e-06 -7.28243e-06 0)
(3.15156e-05 -4.73478e-06 0)
(4.80773e-05 -2.16715e-06 0)
(5.67028e-05 3.60987e-07 0)
(5.77467e-05 2.75423e-06 0)
(5.19151e-05 4.85335e-06 0)
(4.04253e-05 6.3882e-06 0)
(2.53284e-05 6.88618e-06 0)
(1.04675e-05 5.56879e-06 0)
(1.8665e-06 1.8698e-06 0)
(5.67572e-06 -1.23419e-05 0)
(2.07458e-05 -2.13381e-05 0)
(3.60389e-05 -1.76845e-05 0)
(4.06921e-05 -7.03995e-06 0)
(2.84295e-05 7.31612e-06 0)
(-3.76622e-06 2.33093e-05 0)
(-5.72616e-05 3.97108e-05 0)
(-0.000132321 5.57859e-05 0)
(-0.000228453 7.112e-05 0)
(-0.000344689 8.54648e-05 0)
(-0.000479771 9.86884e-05 0)
(-0.00063227 0.000110736 0)
(-0.000800673 0.000121596 0)
(-0.000983434 0.000131287 0)
(-0.00117901 0.000139841 0)
(-0.00138591 0.000147303 0)
(-0.00160266 0.000153727 0)
(-0.00182787 0.000159168 0)
(-0.00206022 0.000163683 0)
(-0.00229843 0.000167327 0)
(-0.00254132 0.000170152 0)
(-0.00278774 0.000172207 0)
(-0.00303664 0.000173538 0)
(-0.00328701 0.00017419 0)
(-0.00353788 0.000174201 0)
(-0.00378836 0.000173606 0)
(-0.00403758 0.000172433 0)
(-0.00428472 0.000170709 0)
(-0.00452898 0.000168457 0)
(-0.00476962 0.000165697 0)
(-0.0050059 0.000162443 0)
(-0.0052371 0.00015871 0)
(-0.00546253 0.000154508 0)
(-0.00568152 0.000149844 0)
(-0.00589338 0.000144724 0)
(-0.00609747 0.000139154 0)
(-0.00629313 0.000133139 0)
(-0.00647972 0.00012668 0)
(-0.0066566 0.00011978 0)
(-0.00682314 0.000112446 0)
(-0.00697873 0.00010468 0)
(-0.00712275 9.64894e-05 0)
(-0.0072546 8.78802e-05 0)
(-0.00737369 7.88618e-05 0)
(-0.00747946 6.9446e-05 0)
(-0.00757136 5.96482e-05 0)
(-0.00764886 4.94861e-05 0)
(-0.00771148 3.89803e-05 0)
(-0.00775874 2.81552e-05 0)
(-0.00779022 1.7038e-05 0)
(-0.00780556 5.66066e-06 0)
(-0.00780442 -5.93968e-06 0)
(-0.00778652 -1.77225e-05 0)
(-0.00775166 -2.96434e-05 0)
(-0.00769969 -4.1654e-05 0)
(-0.00763054 -5.3702e-05 0)
(-0.0075442 -6.57313e-05 0)
(-0.00744077 -7.76816e-05 0)
(-0.00732042 -8.94897e-05 0)
(-0.0071834 -0.00010109 0)
(-0.00703009 -0.000112413 0)
(-0.00686092 -0.000123389 0)
(-0.00667647 -0.000133947 0)
(-0.00647737 -0.000144013 0)
(-0.00626439 -0.000153516 0)
(-0.00603838 -0.000162383 0)
(-0.00580031 -0.000170544 0)
(-0.00555121 -0.000177928 0)
(-0.00529224 -0.000184471 0)
(-0.00502462 -0.000190111 0)
(-0.00474969 -0.000194789 0)
(-0.00446883 -0.000198452 0)
(-0.00418351 -0.000201052 0)
(-0.00389525 -0.000202548 0)
(-0.00360563 -0.000202904 0)
(-0.00331628 -0.000202094 0)
(-0.00302883 -0.000200098 0)
(-0.00274497 -0.000196904 0)
(-0.00246638 -0.000192508 0)
(-0.00219473 -0.000186917 0)
(-0.00193168 -0.000180143 0)
(-0.00167887 -0.000172209 0)
(-0.00143789 -0.000163148 0)
(-0.00121027 -0.000153001 0)
(-0.000997472 -0.000141822 0)
(-0.000800869 -0.000129674 0)
(-0.000621726 -0.000116632 0)
(-0.00046118 -0.000102788 0)
(-0.000320216 -8.82516e-05 0)
(-0.000199631 -7.31565e-05 0)
(-9.99973e-05 -5.76709e-05 0)
(-2.15994e-05 -4.20106e-05 0)
(3.56372e-05 -2.64634e-05 0)
(7.22588e-05 -1.14263e-05 0)
(8.94439e-05 2.53244e-06 0)
(8.9219e-05 1.45823e-05 0)
(7.46994e-05 2.34957e-05 0)
(5.0458e-05 2.74489e-05 0)
(2.3833e-05 2.38707e-05 0)
(5.54066e-06 1.0449e-05 0)
(5.71556e-06 -2.4403e-05 0)
(1.76227e-05 -3.63568e-05 0)
(2.32139e-05 -2.32635e-05 0)
(1.0772e-05 5.18398e-06 0)
(-2.70798e-05 4.2492e-05 0)
(-9.43298e-05 8.42585e-05 0)
(-0.000192994 0.000127566 0)
(-0.000323648 0.00017053 0)
(-0.00048582 0.000211953 0)
(-0.000678318 0.000251086 0)
(-0.000899467 0.00028748 0)
(-0.00114729 0.000320892 0)
(-0.00141963 0.000351213 0)
(-0.00171424 0.000378428 0)
(-0.00202884 0.000402583 0)
(-0.00236117 0.000423765 0)
(-0.00270902 0.000442083 0)
(-0.00307026 0.000457669 0)
(-0.00344281 0.000470656 0)
(-0.00382472 0.000481181 0)
(-0.0042141 0.000489379 0)
(-0.00460916 0.000495378 0)
(-0.00500821 0.000499301 0)
(-0.00540964 0.000501261 0)
(-0.00581191 0.000501362 0)
(-0.00621357 0.000499699 0)
(-0.00661322 0.000496353 0)
(-0.00700952 0.0004914 0)
(-0.0074012 0.000484902 0)
(-0.00778703 0.000476914 0)
(-0.00816581 0.000467483 0)
(-0.00853639 0.000456648 0)
(-0.00889762 0.000444439 0)
(-0.00924842 0.000430883 0)
(-0.00958769 0.000416002 0)
(-0.00991438 0.000399814 0)
(-0.0102274 0.000382332 0)
(-0.0105258 0.000363571 0)
(-0.0108085 0.000343545 0)
(-0.0110744 0.000322267 0)
(-0.0113227 0.000299757 0)
(-0.0115523 0.000276035 0)
(-0.0117623 0.000251125 0)
(-0.0119518 0.000225058 0)
(-0.0121198 0.000197871 0)
(-0.0122655 0.00016961 0)
(-0.0123881 0.000140328 0)
(-0.0124869 0.000110089 0)
(-0.012561 7.89631e-05 0)
(-0.0126099 4.7034e-05 0)
(-0.012633 1.43945e-05 0)
(-0.0126298 -1.88501e-05 0)
(-0.0125998 -5.25832e-05 0)
(-0.0125428 -8.66777e-05 0)
(-0.0124586 -0.000120995 0)
(-0.012347 -0.000155386 0)
(-0.0122081 -0.000189692 0)
(-0.0120421 -0.000223742 0)
(-0.0118492 -0.000257359 0)
(-0.0116299 -0.000290357 0)
(-0.0113848 -0.000322545 0)
(-0.0111146 -0.000353726 0)
(-0.0108203 -0.000383698 0)
(-0.0105027 -0.000412261 0)
(-0.0101632 -0.00043921 0)
(-0.00980316 -0.000464347 0)
(-0.00942402 -0.000487474 0)
(-0.00902747 -0.000508401 0)
(-0.00861532 -0.000526944 0)
(-0.00818952 -0.000542931 0)
(-0.00775213 -0.000556201 0)
(-0.00730536 -0.000566607 0)
(-0.00685149 -0.000574017 0)
(-0.00639291 -0.000578318 0)
(-0.00593211 -0.000579414 0)
(-0.0054716 -0.000577232 0)
(-0.00501398 -0.000571718 0)
(-0.00456185 -0.000562844 0)
(-0.00411783 -0.000550603 0)
(-0.00368455 -0.000535014 0)
(-0.00326457 -0.000516122 0)
(-0.00286044 -0.000493998 0)
(-0.00247461 -0.000468741 0)
(-0.00210945 -0.000440479 0)
(-0.0017672 -0.000409373 0)
(-0.00144995 -0.000375617 0)
(-0.00115962 -0.000339443 0)
(-0.000897905 -0.000301132 0)
(-0.000666247 -0.000261019 0)
(-0.000465781 -0.000219515 0)
(-0.000297267 -0.000177127 0)
(-0.000161012 -0.000134493 0)
(-5.6759e-05 -9.244e-05 0)
(1.64527e-05 -5.20565e-05 0)
(6.04779e-05 -1.48115e-05 0)
(7.83012e-05 1.72902e-05 0)
(7.42512e-05 4.15077e-05 0)
(5.42909e-05 5.41507e-05 0)
(2.74346e-05 5.04793e-05 0)
(6.83885e-06 2.5246e-05 0)
(3.9231e-06 -3.28124e-05 0)
(7.2448e-06 -4.09757e-05 0)
(-4.93908e-06 -1.08142e-05 0)
(-4.33381e-05 4.35447e-05 0)
(-0.000115148 0.000112528 0)
(-0.000224645 0.000189308 0)
(-0.00037407 0.000269111 0)
(-0.000564113 0.000348677 0)
(-0.000794286 0.000425824 0)
(-0.00106324 0.000499117 0)
(-0.00136902 0.000567643 0)
(-0.00170925 0.000630859 0)
(-0.00208131 0.000688482 0)
(-0.00248241 0.000740411 0)
(-0.00290969 0.000786672 0)
(-0.00336028 0.000827376 0)
(-0.00383136 0.000862692 0)
(-0.00432015 0.000892825 0)
(-0.00482398 0.000918003 0)
(-0.00534026 0.000938462 0)
(-0.00586651 0.000954439 0)
(-0.00640036 0.000966164 0)
(-0.00693955 0.000973857 0)
(-0.00748191 0.000977727 0)
(-0.00802539 0.000977964 0)
(-0.00856801 0.000974742 0)
(-0.00910789 0.000968219 0)
(-0.00964323 0.000958534 0)
(-0.0101723 0.000945808 0)
(-0.0106933 0.000930148 0)
(-0.0112048 0.000911644 0)
(-0.0117051 0.000890373 0)
(-0.0121927 0.000866397 0)
(-0.012666 0.000839772 0)
(-0.0131237 0.000810543 0)
(-0.0135642 0.000778749 0)
(-0.0139861 0.000744424 0)
(-0.0143881 0.000707599 0)
(-0.0147687 0.000668308 0)
(-0.0151266 0.000626586 0)
(-0.0154605 0.00058247 0)
(-0.0157691 0.000536007 0)
(-0.016051 0.000487251 0)
(-0.0163051 0.000436267 0)
(-0.0165302 0.000383133 0)
(-0.0167252 0.00032794 0)
(-0.0168889 0.000270796 0)
(-0.0170203 0.000211828 0)
(-0.0171186 0.000151179 0)
(-0.0171829 8.90114e-05 0)
(-0.0172124 2.55104e-05 0)
(-0.0172064 -3.91194e-05 0)
(-0.0171646 -0.000104652 0)
(-0.0170864 -0.000170839 0)
(-0.0169717 -0.000237414 0)
(-0.0168203 -0.000304087 0)
(-0.0166324 -0.000370551 0)
(-0.0164081 -0.000436481 0)
(-0.0161478 -0.000501535 0)
(-0.0158523 -0.000565359 0)
(-0.0155222 -0.000627584 0)
(-0.0151586 -0.000687834 0)
(-0.0147627 -0.000745727 0)
(-0.0143359 -0.000800878 0)
(-0.0138798 -0.000852901 0)
(-0.0133963 -0.000901414 0)
(-0.0128873 -0.000946044 0)
(-0.012355 -0.000986429 0)
(-0.011802 -0.00102222 0)
(-0.0112307 -0.0010531 0)
(-0.0106439 -0.00107875 0)
(-0.0100445 -0.00109889 0)
(-0.00943555 -0.00111329 0)
(-0.00882022 -0.00112172 0)
(-0.00820177 -0.00112401 0)
(-0.00758354 -0.00112002 0)
(-0.00696892 -0.00110965 0)
(-0.00636137 -0.00109285 0)
(-0.00576433 -0.00106962 0)
(-0.00518124 -0.00104 0)
(-0.00461548 -0.00100408 0)
(-0.00407038 -0.000962014 0)
(-0.00354914 -0.000913996 0)
(-0.00305484 -0.000860288 0)
(-0.0025904 -0.000801214 0)
(-0.00215852 -0.000737165 0)
(-0.00176165 -0.000668611 0)
(-0.00140195 -0.000596115 0)
(-0.00108121 -0.000520352 0)
(-0.000800846 -0.000442135 0)
(-0.000561732 -0.00036246 0)
(-0.000364174 -0.000282558 0)
(-0.000207762 -0.000203984 0)
(-9.1225e-05 -0.000128726 0)
(-1.22458e-05 -5.93604e-05 0)
(3.27513e-05 7.42898e-07 0)
(4.8784e-05 4.71779e-05 0)
(4.25543e-05 7.42765e-05 0)
(2.37817e-05 7.49432e-05 0)
(6.36906e-06 4.03285e-05 0)
(1.3782e-06 -3.45661e-05 0)
(-6.97329e-06 -2.88393e-05 0)
(-4.22638e-05 2.70794e-05 0)
(-0.000112678 0.000115425 0)
(-0.00022439 0.000223895 0)
(-0.000381449 0.000343436 0)
(-0.000585964 0.000467481 0)
(-0.000838508 0.000591374 0)
(-0.00113846 0.000711871 0)
(-0.00148431 0.00082676 0)
(-0.00187384 0.000934574 0)
(-0.00230439 0.00103439 0)
(-0.00277295 0.00112568 0)
(-0.0032763 0.00120822 0)
(-0.00381113 0.00128195 0)
(-0.00437408 0.00134701 0)
(-0.00496181 0.00140359 0)
(-0.00557101 0.00145198 0)
(-0.00619848 0.0014925 0)
(-0.0068411 0.00152548 0)
(-0.00749587 0.00155128 0)
(-0.00815991 0.00157023 0)
(-0.00883043 0.00158268 0)
(-0.0095048 0.00158894 0)
(-0.0101805 0.0015893 0)
(-0.010855 0.00158403 0)
(-0.011526 0.00157338 0)
(-0.0121913 0.00155756 0)
(-0.0128487 0.00153678 0)
(-0.0134961 0.00151119 0)
(-0.0141315 0.00148095 0)
(-0.0147528 0.00144618 0)
(-0.0153582 0.00140699 0)
(-0.0159458 0.00136347 0)
(-0.0165138 0.00131569 0)
(-0.0170603 0.00126373 0)
(-0.0175836 0.00120765 0)
(-0.0180819 0.0011475 0)
(-0.0185535 0.00108336 0)
(-0.0189968 0.00101527 0)
(-0.0194101 0.000943311 0)
(-0.0197917 0.000867567 0)
(-0.0201403 0.00078813 0)
(-0.0204541 0.000705113 0)
(-0.0207318 0.000618649 0)
(-0.020972 0.000528893 0)
(-0.0211734 0.000436024 0)
(-0.0213347 0.000340251 0)
(-0.0214549 0.000241811 0)
(-0.0215329 0.000140973 0)
(-0.0215678 3.80371e-05 0)
(-0.0215589 -6.66627e-05 0)
(-0.0215056 -0.00017276 0)
(-0.0214073 -0.000279855 0)
(-0.0212639 -0.000387515 0)
(-0.0210753 -0.000495275 0)
(-0.0208415 -0.000602641 0)
(-0.0205629 -0.000709092 0)
(-0.02024 -0.000814082 0)
(-0.0198736 -0.00091704 0)
(-0.0194647 -0.00101738 0)
(-0.0190146 -0.00111451 0)
(-0.0185247 -0.0012078 0)
(-0.0179968 -0.00129666 0)
(-0.0174329 -0.00138046 0)
(-0.0168351 -0.00145861 0)
(-0.0162061 -0.0015305 0)
(-0.0155485 -0.00159556 0)
(-0.0148652 -0.00165324 0)
(-0.0141595 -0.00170303 0)
(-0.0134346 -0.00174444 0)
(-0.0126941 -0.00177703 0)
(-0.0119417 -0.00180041 0)
(-0.0111813 -0.00181424 0)
(-0.0104169 -0.00181825 0)
(-0.00965237 -0.00181222 0)
(-0.00889203 -0.001796 0)
(-0.00813999 -0.00176952 0)
(-0.00740044 -0.00173277 0)
(-0.00667755 -0.00168585 0)
(-0.00597539 -0.0016289 0)
(-0.00529799 -0.00156217 0)
(-0.00464922 -0.00148601 0)
(-0.00403277 -0.00140084 0)
(-0.00345213 -0.0013072 0)
(-0.00291053 -0.00120575 0)
(-0.00241087 -0.00109726 0)
(-0.0019557 -0.000982662 0)
(-0.00154712 -0.00086306 0)
(-0.00118675 -0.000739776 0)
(-0.000875579 -0.000614407 0)
(-0.000613931 -0.0004889 0)
(-0.000401302 -0.000365656 0)
(-0.000236238 -0.000247669 0)
(-0.000116166 -0.000138711 0)
(-3.72139e-05 -4.35614e-05 0)
(5.94828e-06 3.17149e-05 0)
(2.03219e-05 7.95098e-05 0)
(1.55893e-05 9.0388e-05 0)
(4.94066e-06 5.20398e-05 0)
(-1.44471e-06 -2.81749e-05 0)
(-2.3066e-05 3.37334e-06 0)
(-8.46491e-05 9.47884e-05 0)
(-0.000190974 0.000225616 0)
(-0.000346598 0.000381317 0)
(-0.000554954 0.000550908 0)
(-0.000817712 0.000726199 0)
(-0.00113511 0.000901217 0)
(-0.00150627 0.00107167 0)
(-0.00192942 0.00123455 0)
(-0.00240211 0.00138778 0)
(-0.00292139 0.00153001 0)
(-0.00348391 0.00166044 0)
(-0.00408613 0.00177865 0)
(-0.00472434 0.0018845 0)
(-0.00539476 0.00197809 0)
(-0.00609362 0.00205966 0)
(-0.00681718 0.00212953 0)
(-0.00756178 0.00218813 0)
(-0.00832384 0.00223589 0)
(-0.00909991 0.00227328 0)
(-0.00988664 0.00230076 0)
(-0.0106808 0.00231878 0)
(-0.0114793 0.00232778 0)
(-0.0122792 0.00232817 0)
(-0.0130776 0.00232032 0)
(-0.0138717 0.00230458 0)
(-0.0146589 0.00228125 0)
(-0.0154367 0.00225062 0)
(-0.0162025 0.00221293 0)
(-0.0169539 0.00216838 0)
(-0.0176886 0.00211717 0)
(-0.0184043 0.00205946 0)
(-0.0190989 0.00199537 0)
(-0.01977 0.00192503 0)
(-0.0204155 0.00184855 0)
(-0.0210335 0.00176603 0)
(-0.0216217 0.00167756 0)
(-0.0221782 0.00158323 0)
(-0.0227011 0.00148315 0)
(-0.0231883 0.00137744 0)
(-0.023638 0.00126621 0)
(-0.0240485 0.00114962 0)
(-0.0244178 0.00102784 0)
(-0.0247443 0.000901075 0)
(-0.0250265 0.000769555 0)
(-0.0252628 0.000633551 0)
(-0.0254517 0.000493373 0)
(-0.025592 0.000349374 0)
(-0.0256826 0.000201948 0)
(-0.0257223 5.15385e-05 0)
(-0.0257104 -0.000101367 0)
(-0.0256461 -0.000256232 0)
(-0.025529 -0.000412474 0)
(-0.0253587 -0.000569463 0)
(-0.0251353 -0.000726526 0)
(-0.0248587 -0.000882947 0)
(-0.0245295 -0.00103797 0)
(-0.0241484 -0.00119081 0)
(-0.0237161 -0.00134064 0)
(-0.023234 -0.00148662 0)
(-0.0227034 -0.00162788 0)
(-0.0221262 -0.00176355 0)
(-0.0215044 -0.00189274 0)
(-0.0208404 -0.00201457 0)
(-0.0201367 -0.00212818 0)
(-0.0193963 -0.00223271 0)
(-0.0186222 -0.00232733 0)
(-0.0178181 -0.00241127 0)
(-0.0169874 -0.00248377 0)
(-0.0161342 -0.00254415 0)
(-0.0152625 -0.00259178 0)
(-0.0143767 -0.00262611 0)
(-0.0134811 -0.00264665 0)
(-0.0125805 -0.002653 0)
(-0.0116795 -0.00264488 0)
(-0.010783 -0.00262207 0)
(-0.00989567 -0.00258448 0)
(-0.00902244 -0.00253211 0)
(-0.0081681 -0.00246509 0)
(-0.00733737 -0.00238367 0)
(-0.00653488 -0.00228823 0)
(-0.00576507 -0.00217926 0)
(-0.0050322 -0.00205741 0)
(-0.00434024 -0.00192349 0)
(-0.00369289 -0.00177846 0)
(-0.00309345 -0.00162347 0)
(-0.00254481 -0.00145989 0)
(-0.00204934 -0.00128933 0)
(-0.00160885 -0.0011137 0)
(-0.00122447 -0.000935288 0)
(-0.000896565 -0.00075684 0)
(-0.000624621 -0.000581674 0)
(-0.000407128 -0.000413847 0)
(-0.000241436 -0.00025835 0)
(-0.000123612 -0.000121355 0)
(-4.82992e-05 -1.0517e-05 0)
(-8.5337e-06 6.47366e-05 0)
(4.76183e-06 9.2831e-05 0)
(3.0436e-06 5.85789e-05 0)
(-4.31389e-06 -1.31305e-05 0)
(-3.98854e-05 5.74039e-05 0)
(-0.000129441 0.000194901 0)
(-0.000273932 0.000377139 0)
(-0.000475949 0.000587879 0)
(-0.000738024 0.000814567 0)
(-0.00106114 0.00104763 0)
(-0.00144501 0.00127992 0)
(-0.00188834 0.00150616 0)
(-0.00238906 0.00172258 0)
(-0.00294439 0.0019265 0)
(-0.00355109 0.00211614 0)
(-0.00420554 0.00229037 0)
(-0.00490384 0.00244857 0)
(-0.00564196 0.00259051 0)
(-0.00641577 0.00271621 0)
(-0.00722114 0.00282593 0)
(-0.00805393 0.00292005 0)
(-0.0089101 0.00299906 0)
(-0.00978567 0.00306351 0)
(-0.0106768 0.00311397 0)
(-0.0115797 0.00315102 0)
(-0.0124908 0.00317526 0)
(-0.0134066 0.00318722 0)
(-0.0143237 0.00318745 0)
(-0.0152389 0.00317643 0)
(-0.016149 0.00315462 0)
(-0.0170511 0.00312242 0)
(-0.0179421 0.0030802 0)
(-0.0188192 0.00302829 0)
(-0.0196798 0.00296698 0)
(-0.0205211 0.00289651 0)
(-0.0213404 0.00281712 0)
(-0.0221353 0.00272897 0)
(-0.0229032 0.00263226 0)
(-0.0236418 0.00252713 0)
(-0.0243485 0.00241373 0)
(-0.0250211 0.00229219 0)
(-0.0256572 0.00216265 0)
(-0.0262546 0.00202527 0)
(-0.0268112 0.00188022 0)
(-0.0273246 0.00172766 0)
(-0.027793 0.00156783 0)
(-0.0282143 0.00140096 0)
(-0.0285866 0.00122733 0)
(-0.028908 0.00104729 0)
(-0.0291769 0.000861204 0)
(-0.0293916 0.000669502 0)
(-0.0295508 0.00047267 0)
(-0.0296531 0.000271253 0)
(-0.0296973 6.58571e-05 0)
(-0.0296826 -0.00014285 0)
(-0.0296082 -0.000354137 0)
(-0.0294735 -0.000567209 0)
(-0.0292783 -0.000781213 0)
(-0.0290224 -0.000995234 0)
(-0.0287061 -0.0012083 0)
(-0.0283298 -0.0014194 0)
(-0.0278943 -0.00162745 0)
(-0.0274007 -0.00183136 0)
(-0.0268504 -0.00202998 0)
(-0.0262449 -0.00222215 0)
(-0.0255864 -0.00240668 0)
(-0.0248772 -0.00258239 0)
(-0.0241199 -0.0027481 0)
(-0.0233174 -0.00290263 0)
(-0.022473 -0.00304484 0)
(-0.0215904 -0.00317363 0)
(-0.0206733 -0.00328795 0)
(-0.019726 -0.00338678 0)
(-0.0187528 -0.00346922 0)
(-0.0177583 -0.00353443 0)
(-0.0167474 -0.00358165 0)
(-0.0157252 -0.00361025 0)
(-0.0146968 -0.00361971 0)
(-0.0136675 -0.00360963 0)
(-0.0126427 -0.00357974 0)
(-0.0116278 -0.00352993 0)
(-0.0106282 -0.00346022 0)
(-0.0096493 -0.0033708 0)
(-0.00869643 -0.003262 0)
(-0.00777472 -0.00313437 0)
(-0.00688916 -0.0029886 0)
(-0.00604449 -0.00282558 0)
(-0.00524514 -0.00264643 0)
(-0.00449521 -0.00245246 0)
(-0.00379837 -0.00224527 0)
(-0.00315783 -0.00202671 0)
(-0.00257621 -0.00179896 0)
(-0.00205553 -0.0015646 0)
(-0.00159706 -0.00132666 0)
(-0.00120128 -0.00108872 0)
(-0.000867747 -0.000855068 0)
(-0.000595007 -0.000630834 0)
(-0.000380483 -0.000422209 0)
(-0.000220371 -0.000236699 0)
(-0.000109508 -8.34326e-05 0)
(-4.12282e-05 2.65326e-05 0)
(-7.44944e-06 7.98019e-05 0)
(9.5355e-07 5.90064e-05 0)
(-7.1169e-06 1.06809e-05 0)
(-5.67782e-05 0.000134001 0)
(-0.000174972 0.000328753 0)
(-0.000358707 0.000571691 0)
(-0.000608436 0.000845399 0)
(-0.000925595 0.00113613 0)
(-0.0013103 0.0014332 0)
(-0.00176157 0.00172844 0)
(-0.00227761 0.00201575 0)
(-0.0028559 0.00229063 0)
(-0.00349332 0.00254984 0)
(-0.0041863 0.00279119 0)
(-0.0049309 0.00301321 0)
(-0.00572293 0.00321509 0)
(-0.00655806 0.00339646 0)
(-0.00743182 0.0035573 0)
(-0.00833976 0.00369784 0)
(-0.00927742 0.00381852 0)
(-0.0102404 0.00391989 0)
(-0.0112244 0.0040026 0)
(-0.0122251 0.00406733 0)
(-0.0132386 0.00411479 0)
(-0.0142608 0.00414568 0)
(-0.0152879 0.0041607 0)
(-0.0163161 0.00416048 0)
(-0.0173419 0.00414564 0)
(-0.0183618 0.00411675 0)
(-0.0193724 0.00407432 0)
(-0.0203704 0.00401882 0)
(-0.0213528 0.00395066 0)
(-0.0223164 0.00387021 0)
(-0.0232582 0.0037778 0)
(-0.0241753 0.00367372 0)
(-0.0250649 0.00355821 0)
(-0.0259242 0.00343151 0)
(-0.0267504 0.00329383 0)
(-0.0275409 0.00314535 0)
(-0.0282929 0.00298627 0)
(-0.0290041 0.00281679 0)
(-0.0296718 0.00263711 0)
(-0.0302937 0.00244745 0)
(-0.0308673 0.00224808 0)
(-0.0313903 0.00203928 0)
(-0.0318606 0.00182138 0)
(-0.0322761 0.00159477 0)
(-0.0326346 0.00135987 0)
(-0.0329344 0.0011172 0)
(-0.0331737 0.000867311 0)
(-0.0333508 0.000610846 0)
(-0.0334644 0.000348519 0)
(-0.0335133 8.11188e-05 0)
(-0.0334963 -0.000190483 0)
(-0.0334127 -0.000465337 0)
(-0.0332619 -0.000742414 0)
(-0.0330436 -0.00102061 0)
(-0.0327576 -0.00129873 0)
(-0.0324044 -0.00157554 0)
(-0.0319843 -0.00184971 0)
(-0.0314983 -0.00211986 0)
(-0.0309476 -0.00238458 0)
(-0.0303336 -0.0026424 0)
(-0.0296582 -0.00289181 0)
(-0.0289238 -0.0031313 0)
(-0.0281327 -0.00335934 0)
(-0.0272881 -0.00357442 0)
(-0.0263931 -0.00377503 0)
(-0.0254513 -0.00395971 0)
(-0.0244668 -0.00412705 0)
(-0.0234437 -0.00427568 0)
(-0.0223867 -0.00440434 0)
(-0.0213006 -0.00451183 0)
(-0.0201905 -0.0045971 0)
(-0.0190618 -0.0046592 0)
(-0.0179199 -0.0046973 0)
(-0.0167706 -0.00471074 0)
(-0.0156198 -0.00469903 0)
(-0.0144732 -0.00466183 0)
(-0.013337 -0.00459901 0)
(-0.012217 -0.0045106 0)
(-0.0111192 -0.00439687 0)
(-0.0100494 -0.00425827 0)
(-0.00901316 -0.00409551 0)
(-0.00801605 -0.00390952 0)
(-0.00706324 -0.00370146 0)
(-0.00615957 -0.00347279 0)
(-0.00530953 -0.00322524 0)
(-0.00451714 -0.00296086 0)
(-0.0037859 -0.00268206 0)
(-0.0031187 -0.00239163 0)
(-0.00251778 -0.00209285 0)
(-0.0019846 -0.00178954 0)
(-0.0015198 -0.00148615 0)
(-0.00112308 -0.00118794 0)
(-0.00079316 -0.000901097 0)
(-0.000527648 -0.000632973 0)
(-0.000323021 -0.000392313 0)
(-0.000174478 -0.000189576 0)
(-7.58334e-05 -3.7216e-05 0)
(-2.02385e-05 4.99085e-05 0)
(-1.17401e-06 5.28924e-05 0)
(-9.80601e-06 4.31272e-05 0)
(-7.33827e-05 0.000233259 0)
(-0.00022022 0.000496776 0)
(-0.000443459 0.000809984 0)
(-0.000741352 0.00115474 0)
(-0.00111414 0.00151647 0)
(-0.00156094 0.00188362 0)
(-0.00207997 0.00224724 0)
(-0.0026688 0.00260051 0)
(-0.00332441 0.00293831 0)
(-0.00404326 0.00325693 0)
(-0.00482141 0.00355375 0)
(-0.00565459 0.00382704 0)
(-0.00653831 0.00407576 0)
(-0.00746793 0.00429942 0)
(-0.0084387 0.00449794 0)
(-0.00944584 0.00467155 0)
(-0.0104846 0.00482071 0)
(-0.0115503 0.00494604 0)
(-0.0126383 0.00504829 0)
(-0.0137441 0.00512823 0)
(-0.0148632 0.0051867 0)
(-0.0159914 0.00522453 0)
(-0.0171245 0.00524253 0)
(-0.0182585 0.00524148 0)
(-0.0193895 0.00522211 0)
(-0.0205137 0.00518511 0)
(-0.0216274 0.0051311 0)
(-0.0227271 0.00506065 0)
(-0.0238092 0.00497427 0)
(-0.0248706 0.00487242 0)
(-0.0259077 0.0047555 0)
(-0.0269176 0.00462387 0)
(-0.0278969 0.00447785 0)
(-0.0288428 0.00431774 0)
(-0.0297521 0.0041438 0)
(-0.0306219 0.00395629 0)
(-0.0314494 0.00375546 0)
(-0.0322317 0.00354156 0)
(-0.0329662 0.00331487 0)
(-0.0336501 0.00307569 0)
(-0.0342808 0.00282434 0)
(-0.0348559 0.0025612 0)
(-0.0353729 0.00228669 0)
(-0.0358295 0.00200132 0)
(-0.0362236 0.00170563 0)
(-0.0365531 0.00140026 0)
(-0.036816 0.00108594 0)
(-0.0370107 0.000763463 0)
(-0.0371356 0.000433733 0)
(-0.0371894 9.77442e-05 0)
(-0.0371709 -0.00024341 0)
(-0.0370793 -0.000588539 0)
(-0.036914 -0.000936354 0)
(-0.0366746 -0.00128547 0)
(-0.036361 -0.00163442 0)
(-0.0359735 -0.00198163 0)
(-0.0355128 -0.00232547 0)
(-0.0349798 -0.00266422 0)
(-0.0343757 -0.0029961 0)
(-0.0337023 -0.00331931 0)
(-0.0329615 -0.00363197 0)
(-0.0321559 -0.00393219 0)
(-0.0312881 -0.00421809 0)
(-0.0303614 -0.00448779 0)
(-0.0293793 -0.00473941 0)
(-0.0283458 -0.00497115 0)
(-0.0272652 -0.00518125 0)
(-0.026142 -0.00536803 0)
(-0.0249813 -0.00552992 0)
(-0.0237883 -0.00566544 0)
(-0.0225685 -0.00577329 0)
(-0.0213278 -0.00585228 0)
(-0.0200721 -0.00590142 0)
(-0.0188077 -0.00591988 0)
(-0.0175408 -0.00590705 0)
(-0.0162778 -0.00586255 0)
(-0.0150253 -0.00578619 0)
(-0.0137897 -0.00567806 0)
(-0.0125773 -0.00553849 0)
(-0.0113946 -0.00536808 0)
(-0.0102476 -0.0051677 0)
(-0.00914218 -0.00493855 0)
(-0.00808402 -0.00468209 0)
(-0.00707836 -0.00440015 0)
(-0.00613007 -0.00409491 0)
(-0.00524348 -0.00376892 0)
(-0.00442242 -0.00342516 0)
(-0.00367006 -0.00306709 0)
(-0.00298887 -0.00269871 0)
(-0.00238054 -0.00232464 0)
(-0.00184594 -0.00195023 0)
(-0.00138499 -0.0015817 0)
(-0.000996641 -0.00122625 0)
(-0.000678813 -0.000892339 0)
(-0.000428364 -0.000589844 0)
(-0.000240974 -0.00033039 0)
(-0.000111056 -0.000127602 0)
(-3.31007e-05 2.5423e-06 0)
(-3.25422e-06 4.01346e-05 0)
(-1.23615e-05 8.39551e-05 0)
(-8.95033e-05 0.000354877 0)
(-0.000264582 0.000698805 0)
(-0.000527027 0.00109203 0)
(-0.00087292 0.00151605 0)
(-0.00130126 0.00195576 0)
(-0.0018101 0.00239903 0)
(-0.00239676 0.0028363 0)
(-0.00305809 0.00326019 0)
(-0.0037905 0.00366509 0)
(-0.00458999 0.00404686 0)
(-0.00545219 0.00440254 0)
(-0.00637248 0.00473014 0)
(-0.00734606 0.00502845 0)
(-0.00836796 0.00529686 0)
(-0.00943316 0.00553523 0)
(-0.0105366 0.00574378 0)
(-0.0116733 0.005923 0)
(-0.0128381 0.0060736 0)
(-0.0140264 0.00619637 0)
(-0.0152331 0.00629224 0)
(-0.0164536 0.00636213 0)
(-0.0176835 0.00640702 0)
(-0.0189181 0.00642783 0)
(-0.0201533 0.00642547 0)
(-0.0213848 0.00640081 0)
(-0.0226085 0.00635464 0)
(-0.0238206 0.0062877 0)
(-0.0250171 0.00620068 0)
(-0.0261945 0.00609416 0)
(-0.0273489 0.00596872 0)
(-0.0284769 0.00582482 0)
(-0.0295751 0.00566293 0)
(-0.03064 0.00548341 0)
(-0.0316683 0.00528665 0)
(-0.0326569 0.00507296 0)
(-0.0336024 0.00484268 0)
(-0.0345019 0.00459612 0)
(-0.0353522 0.0043336 0)
(-0.0361505 0.00405547 0)
(-0.0368938 0.00376211 0)
(-0.0375793 0.00345392 0)
(-0.0382043 0.00313138 0)
(-0.0387663 0.00279503 0)
(-0.0392627 0.00244548 0)
(-0.0396912 0.00208341 0)
(-0.0400496 0.00170961 0)
(-0.0403358 0.00132497 0)
(-0.0405481 0.000930471 0)
(-0.0406846 0.000527225 0)
(-0.040744 0.000116443 0)
(-0.040725 -0.000300542 0)
(-0.0406268 -0.000722276 0)
(-0.0404487 -0.00114719 0)
(-0.0401902 -0.00157361 0)
(-0.0398514 -0.00199974 0)
(-0.0394325 -0.00242368 0)
(-0.0389342 -0.00284344 0)
(-0.0383574 -0.00325696 0)
(-0.0377036 -0.00366207 0)
(-0.0369746 -0.00405658 0)
(-0.0361725 -0.00443823 0)
(-0.0353 -0.00480474 0)
(-0.0343599 -0.00515382 0)
(-0.0333558 -0.00548319 0)
(-0.0322915 -0.00579061 0)
(-0.0311711 -0.00607388 0)
(-0.0299993 -0.00633088 0)
(-0.028781 -0.00655959 0)
(-0.0275216 -0.00675809 0)
(-0.0262266 -0.00692463 0)
(-0.0249021 -0.00705761 0)
(-0.0235542 -0.00715562 0)
(-0.0221894 -0.00721745 0)
(-0.0208143 -0.00724212 0)
(-0.0194358 -0.00722889 0)
(-0.0180606 -0.00717731 0)
(-0.0166957 -0.00708717 0)
(-0.0153481 -0.00695858 0)
(-0.0140247 -0.00679197 0)
(-0.0127321 -0.00658806 0)
(-0.011477 -0.00634796 0)
(-0.0102656 -0.0060731 0)
(-0.00910416 -0.00576529 0)
(-0.00799818 -0.00542676 0)
(-0.0069529 -0.00506013 0)
(-0.00597305 -0.00466852 0)
(-0.00506274 -0.00425549 0)
(-0.00422545 -0.00382519 0)
(-0.00346393 -0.00338237 0)
(-0.00278016 -0.00293246 0)
(-0.00217525 -0.00248169 0)
(-0.00164942 -0.00203722 0)
(-0.00120193 -0.00160725 0)
(-0.000831085 -0.00120125 0)
(-0.000534194 -0.000830122 0)
(-0.000307497 -0.000506513 0)
(-0.000146061 -0.000244997 0)
(-4.5732e-05 -6.23826e-05 0)
(-5.24352e-06 2.08264e-05 0)
(-1.47848e-05 0.000132863 0)
(-0.000105052 0.000498328 0)
(-0.000307718 0.000934301 0)
(-0.00060871 0.00141736 0)
(-0.00100202 0.00192894 0)
(-0.00148538 0.00245369 0)
(-0.00205575 0.00297911 0)
(-0.00270952 0.00349523 0)
(-0.00344276 0.00399426 0)
(-0.00425125 0.00447022 0)
(-0.00513043 0.00491863 0)
(-0.00607553 0.00533626 0)
(-0.00708152 0.00572093 0)
(-0.00814326 0.00607125 0)
(-0.00925546 0.00638654 0)
(-0.0104128 0.0066666 0)
(-0.01161 0.00691167 0)
(-0.0128418 0.00712227 0)
(-0.0141028 0.00729915 0)
(-0.0153879 0.00744324 0)
(-0.0166921 0.00755553 0)
(-0.0180105 0.0076371 0)
(-0.0193381 0.00768901 0)
(-0.0206704 0.00771234 0)
(-0.0220027 0.00770813 0)
(-0.0233306 0.00767735 0)
(-0.0246499 0.00762094 0)
(-0.0259562 0.00753974 0)
(-0.0272456 0.00743454 0)
(-0.0285141 0.00730605 0)
(-0.0297577 0.00715491 0)
(-0.0309728 0.0069817 0)
(-0.0321555 0.00678694 0)
(-0.0333024 0.0065711 0)
(-0.0344099 0.00633461 0)
(-0.0354744 0.00607789 0)
(-0.0364927 0.00580131 0)
(-0.0374613 0.00550527 0)
(-0.0383771 0.00519017 0)
(-0.0392368 0.00485643 0)
(-0.0400374 0.00450451 0)
(-0.040776 0.00413492 0)
(-0.0414495 0.00374823 0)
(-0.0420552 0.00334509 0)
(-0.0425905 0.00292625 0)
(-0.0430529 0.00249253 0)
(-0.0434399 0.00204489 0)
(-0.0437495 0.00158438 0)
(-0.0439795 0.0011122 0)
(-0.0441283 0.000629658 0)
(-0.0441943 0.00013821 0)
(-0.0441762 -0.000360553 0)
(-0.044073 -0.000864901 0)
(-0.0438839 -0.00137297 0)
(-0.0436086 -0.00188275 0)
(-0.043247 -0.00239213 0)
(-0.0427993 -0.00289884 0)
(-0.0422664 -0.00340053 0)
(-0.0416491 -0.00389473 0)
(-0.040949 -0.0043789 0)