/*--------------------------------*- C++ -*----------------------------------*\
| =========                 |                                                 |
| \\      /  F ield         | OpenFOAM: The Open Source CFD Toolbox           |
|  \\    /   O peration     | Version:  2512                                  |
|   \\  /    A nd           | Website:  www.openfoam.com                      |
|    \\/     M anipulation  |                                                 |
\*---------------------------------------------------------------------------*/
FoamFile
{
    version     2.0;
    format      ascii;
    arch        "LSB;label=32;scalar=64";
    class       volScalarField;
    location    "0.42";
    object      p;
}
// * * * * * * * * * * * * * * * * * * * * * * * * * * * * * * * * * * * * * //

dimensions      [0 2 -2 0 0 0 0];

internalField   nonuniform List<scalar> 
10000
(
1.14973e-08
3.43819e-06
-2.52768e-05
-8.72491e-05
-0.00017592
-0.000284927
-0.000408365
-0.000540941
-0.000678115
-0.000816071
-0.000951629
-0.00108215
-0.00120546
-0.00131982
-0.00142379
-0.00151624
-0.00159626
-0.00166316
-0.00171639
-0.00175555
-0.00178035
-0.00179056
-0.00178607
-0.0017668
-0.00173274
-0.00168388
-0.00162025
-0.00154191
-0.00144894
-0.00134142
-0.00121947
-0.00108323
-0.000932858
-0.000768527
-0.000590444
-0.000398853
-0.000194034
2.36963e-05
0.000253975
0.000496391
0.000750472
0.00101568
0.00129143
0.00157705
0.00187181
0.00217493
0.0024855
0.00280259
0.00312515
0.00345209
0.00378222
0.00411429
0.004447
0.00477898
0.0051088
0.00543499
0.00575606
0.00607048
0.00637671
0.00667323
0.00695852
0.00723107
0.00748946
0.00773229
0.00795825
0.00816612
0.00835476
0.00852319
0.00867051
0.00879604
0.00889919
0.00897957
0.00903695
0.00907131
0.0090828
0.00907177
0.0090388
0.00898464
0.00891028
0.00881689
0.00870586
0.00857875
0.00843734
0.00828359
0.00811964
0.00794781
0.00777061
0.0075907
0.00741092
0.00723429
0.007064
0.00690338
0.00675594
0.0066253
0.00651515
0.00642903
0.00636996
0.00633977
0.00633826
0.00635697
-3.54989e-06
-1.7556e-07
-2.64379e-05
-8.01846e-05
-0.000155631
-0.000248232
-0.000353662
-0.000467583
-0.000586252
-0.000706325
-0.000824935
-0.000939652
-0.00104842
-0.00114953
-0.00124159
-0.00132344
-0.00139415
-0.00145297
-0.00149932
-0.00153274
-0.00155288
-0.00155949
-0.00155238
-0.00153143
-0.00149658
-0.0014478
-0.0013851
-0.00130849
-0.00121803
-0.00111379
-0.000995868
-0.0008644
-0.000719532
-0.000561437
-0.000390316
-0.000206408
-9.98871e-06
0.000198628
0.00041908
0.000650961
0.00089381
0.00114711
0.00141027
0.00168266
0.00196357
0.00225223
0.00254779
0.00284936
0.00315594
0.00346648
0.00377986
0.00409491
0.00441038
0.00472498
0.0050374
0.00534623
0.00565008
0.00594753
0.00623715
0.00651751
0.0067872
0.00704483
0.00728908
0.00751868
0.0077324
0.00792912
0.00810782
0.00826759
0.00840763
0.00852732
0.00862614
0.00870376
0.00876001
0.00879487
0.00880852
0.00880133
0.00877385
0.00872683
0.0086612
0.0085781
0.00847883
0.00836489
0.00823795
0.00809985
0.0079526
0.00779837
0.00763949
0.00747842
0.00731777
0.00716028
0.00700881
0.00686632
0.00673581
0.00662033
0.00652282
0.00644599
0.00639186
0.0063616
0.00635689
0.00637566
2.48801e-05
2.57566e-05
-5.79638e-07
-5.05834e-05
-0.000118869
-0.0002018
-0.000295842
-0.000397476
-0.000503471
-0.000610918
-0.000717267
-0.000820301
-0.000918118
-0.00100911
-0.00109194
-0.00116547
-0.00122879
-0.00128116
-0.00132195
-0.0013507
-0.00136703
-0.00137066
-0.00136139
-0.00133905
-0.00130356
-0.00125487
-0.00119294
-0.0011178
-0.00102947
-0.000928007
-0.000813508
-0.000686085
-0.000545878
-0.000393054
-0.000227811
-5.03796e-05
0.000138974
0.000339944
0.000552174
0.000775265
0.00100877
0.00125218
0.00150494
0.00176643
0.00203596
0.00231278
0.0025961
0.00288504
0.00317865
0.00347594
0.00377582
0.00407717
0.00437882
0.00467955
0.00497808
0.00527311
0.00556331
0.00584733
0.00612383
0.00639145
0.00664886
0.00689478
0.00712794
0.00734716
0.0075513
0.0077393
0.00791021
0.00806319
0.00819751
0.00831259
0.00840797
0.00848336
0.00853859
0.0085737
0.00858887
0.00858447
0.00856104
0.00851932
0.0084602
0.00838477
0.00829427
0.00819015
0.00807399
0.00794754
0.00781268
0.00767147
0.00752609
0.00737882
0.00723209
0.0070884
0.00695034
0.00682057
0.00670175
0.00659651
0.00650736
0.00643661
0.00638593
0.00635655
0.00635206
0.00637433
8.66878e-05
7.92874e-05
4.89065e-05
-1.33736e-06
-6.71014e-05
-0.000145242
-0.000232752
-0.000326665
-0.000424198
-0.000522832
-0.000620309
-0.00071464
-0.000804106
-0.000887223
-0.000962731
-0.00102958
-0.00108689
-0.00113393
-0.00117011
-0.00119495
-0.00120807
-0.00120917
-0.00119806
-0.00117455
-0.00113854
-0.00108996
-0.00102877
-0.000954952
-0.00086854
-0.000769581
-0.000658152
-0.000534354
-0.000398315
-0.000250194
-9.01803e-05
8.15034e-05
0.000264601
0.000458818
0.000663812
0.000879197
0.00110453
0.00133934
0.00158307
0.00183513
0.00209486
0.00236154
0.0026344
0.00291259
0.00319522
0.0034813
0.00376983
0.00405971
0.00434982
0.004639
0.00492601
0.00520963
0.00548857
0.00576155
0.00602728
0.00628448
0.00653189
0.00676826
0.00699241
0.0072032
0.00739957
0.00758049
0.00774508
0.00789253
0.00802219
0.00813348
0.00822601
0.00829948
0.00835377
0.00838892
0.00840512
0.00840273
0.0083823
0.00834454
0.00829031
0.00822066
0.0081368
0.0080401
0.00793207
0.00781438
0.00768883
0.00755736
0.007422
0.00728491
0.00714833
0.00701459
0.00688605
0.00676513
0.00665421
0.00655566
0.00647175
0.00640456
0.00635571
0.00632663
0.00632188
0.00634484
0.000175866
0.000154986
0.000116949
6.34816e-05
-2.72717e-06
-7.90082e-05
-0.000162785
-0.000251568
-0.000343021
-0.000434971
-0.000525454
-0.000612725
-0.000695249
-0.000771692
-0.00084091
-0.000901929
-0.000953931
-0.000996233
-0.00102827
-0.00104958
-0.0010598
-0.00105863
-0.00104585
-0.00102131
-0.000984869
-0.00093646
-0.000876028
-0.000803551
-0.00071904
-0.000622538
-0.00051411
-0.000393847
-0.000261864
-0.000118307
3.66448e-05
0.000202779
0.000379854
0.000567586
0.000765649
0.000973675
0.00119124
0.00141789
0.00165308
0.00189626
0.00214678
0.00240397
0.00266708
0.00293529
0.00320774
0.00348349
0.00376157
0.00404093
0.00432051
0.00459916
0.00487572
0.005149
0.00541778
0.00568083
0.0059369
0.00618477
0.00642322
0.00665108
0.00686721
0.00707051
0.00725995
0.00743459
0.00759355
0.00773609
0.00786157
0.00796947
0.00805938
0.00813107
0.0081844
0.00821943
0.00823637
0.00823556
0.00821754
0.00818299
0.00813277
0.00806788
0.00798948
0.00789888
0.00779754
0.00768704
0.00756911
0.00744555
0.00731831
0.00718939
0.00706089
0.00693494
0.00681373
0.00669945
0.00659428
0.00650036
0.00641974
0.00635435
0.00630575
0.00627548
0.00626812
0.00628721
0.000286507
0.000248632
0.000200133
0.000140942
7.17669e-05
-5.14975e-06
-8.7598e-05
-0.00017354
-0.000261026
-0.000348224
-0.00043346
-0.000515219
-0.000592162
-0.000663115
-0.000727063
-0.000783125
-0.00083056
-0.000868742
-0.000897151
-0.000915355
-0.000923012
-0.000919845
-0.000905633
-0.000880216
-0.000843476
-0.000795321
-0.000735695
-0.000664571
-0.000581951
-0.000487866
-0.000382369
-0.00026554
-0.000137485
1.66144e-06
0.000151738
0.000312548
0.000483859
0.000665404
0.000856874
0.00105792
0.00126815
0.0014871
0.0017143
0.00194917
0.00219112
0.00243951
0.0026936
0.00295262
0.00321574
0.00348205
0.00375061
0.00402044
0.00429049
0.00455967
0.00482685
0.0050909
0.00535063
0.00560485
0.00585236
0.00609199
0.00632256
0.00654294
0.00675202
0.00694876
0.00713216
0.00730129
0.00745533
0.00759356
0.00771537
0.00782025
0.00790783
0.00797786
0.00803025
0.00806504
0.00808243
0.00808279
0.00806661
0.00803458
0.00798752
0.00792639
0.00785232
0.00776656
0.00767052
0.00756571
0.00745376
0.0073364
0.00721545
0.00709279
0.00697038
0.00685021
0.00673427
0.0066246
0.00652318
0.00643194
0.00635275
0.00628739
0.00623738
0.00620421
0.00619186
0.00620328
0.000413083
0.000356106
0.000295087
0.000228146
0.000153905
7.42359e-05
-8.98317e-06
-9.41013e-05
-0.000179529
-0.000263749
-0.000345357
-0.000423071
-0.000495747
-0.000562373
-0.000622063
-0.000674052
-0.000717683
-0.000752396
-0.000777725
-0.000793286
-0.000798765
-0.000793908
-0.000778512
-0.000752424
-0.000715526
-0.000667727
-0.000608968
-0.000539224
-0.000458488
-0.000366777
-0.000264137
-0.000150636
-2.63673e-05
0.000108546
0.000253958
0.000409688
0.000575522
0.000751212
0.000936464
0.00113095
0.0013343
0.00154609
0.00176584
0.00199304
0.0022271
0.00246741
0.00271327
0.00296393
0.00321859
0.00347639
0.00373642
0.00399772
0.00425929
0.00452008
0.004779
0.00503493
0.00528674
0.00553326
0.00577335
0.00600585
0.00622963
0.00644359
0.00664664
0.00683776
0.00701599
0.00718042
0.00733027
0.00746482
0.00758348
0.00768576
0.00777128
0.00783983
0.00789129
0.00792573
0.00794335
0.00794447
0.00792962
0.00789943
0.0078547
0.00779638
0.00772555
0.00764343
0.00755134
0.00745075
0.00734321
0.00723036
0.00711394
0.0069957
0.00687749
0.00676115
0.00664855
0.00654154
0.00644194
0.00635152
0.006272
0.00620498
0.00615189
0.00611419
0.00609484
0.00609579
0.000550549
0.000473265
0.000398377
0.000322174
0.000241232
0.000157104
7.14081e-05
-1.45654e-05
-9.95507e-05
-0.000182317
-0.000261713
-0.000336682
-0.000406271
-0.000469628
-0.000526002
-0.000574746
-0.000615294
-0.000647165
-0.000669958
-0.000683337
-0.000687024
-0.000680797
-0.000664481
-0.000637932
-0.000601038
-0.000553715
-0.000495907
-0.000427584
-0.000348738
-0.000259378
-0.000159536
-4.92716e-05
7.13352e-05
0.000202176
0.00034312
0.000494005
0.000654632
0.000824775
0.00100417
0.0011925
0.00138942
0.00159453
0.00180739
0.00202749
0.00225431
0.00248723
0.0027256
0.00296869
0.00321574
0.00346591
0.00371833
0.00397207
0.00422616
0.00447957
0.00473127
0.00498015
0.00522511
0.00546503
0.00569876
0.00592519
0.00614321
0.00635174
0.00654972
0.00673613
0.00691003
0.00707055
0.0072169
0.00734838
0.0074644
0.00756448
0.00764825
0.00771549
0.0077661
0.00780012
0.00781775
0.00781931
0.0078053
0.00777636
0.00773324
0.00767687
0.00760829
0.00752868
0.00743932
0.00734162
0.00723705
0.00712719
0.00701368
0.0068982
0.00678246
0.0066682
0.00655716
0.00645106
0.00635155
0.00626028
0.00617879
0.00610855
0.00605091
0.00600721
0.00597923
0.00596777
0.000694544
0.0005964
0.000506775
0.000420224
0.000331334
0.000241414
0.000151869
6.36662e-05
-2.22265e-05
-0.000104835
-0.000183245
-0.000256609
-0.000324158
-0.000385198
-0.000439118
-0.000485382
-0.000523525
-0.000553151
-0.000573929
-0.000585575
-0.000587858
-0.000580591
-0.000563625
-0.000536835
-0.00050012
-0.000453408
-0.00039665
-0.000329811
-0.000252878
-0.000165856
-6.8771e-05
3.8331e-05
0.000155386
0.0002823
0.000418955
0.000565208
0.000720885
0.000885777
0.00105964
0.00124219
0.00143311
0.00163201
0.00183849
0.00205207
0.00227225
0.00249845
0.00273003
0.0029663
0.00320653
0.00344991
0.00369559
0.00394268
0.00419023
0.00443725
0.00468271
0.00492556
0.0051647
0.00539902
0.00562741
0.00584878
0.00606203
0.00626609
0.00645991
0.00664248
0.00681289
0.00697024
0.00711377
0.00724277
0.00735667
0.00745496
0.0075373
0.00760343
0.00765327
0.00768685
0.00770434
0.00770607
0.00769251
0.00766428
0.00762213
0.00756694
0.00749972
0.00742162
0.00733388
0.00723785
0.00713495
0.00702668
0.00691462
0.00680037
0.00668554
0.00657178
0.0064607
0.00635391
0.00625294
0.00615929
0.00607438
0.00599953
0.00593602
0.00588509
0.00584724
0.00582209
0.000841268
0.000722131
0.000617282
0.000519632
0.00042188
0.000325146
0.000230658
0.000139104
5.11886e-05
-3.23569e-05
-0.000110833
-0.000183585
-0.00025002
-0.0003096
-0.000361847
-0.000406339
-0.000442712
-0.000470661
-0.000489922
-0.000500271
-0.000501532
-0.000493555
-0.000476215
-0.00044941
-0.000413064
-0.000367113
-0.000311512
-0.00024623
-0.000171252
-8.65755e-05
7.78322e-06
0.000111787
0.000225382
0.000348495
0.000481028
0.00062285
0.000773814
0.000933733
0.00110239
0.00127952
0.00146483
0.00165797
0.00185856
0.00206616
0.00228029
0.00250039
0.00272585
0.00295603
0.00319019
0.00342758
0.00366736
0.00390867
0.00415058
0.00439214
0.00463233
0.00487011
0.00510439
0.00533411
0.00555815
0.00577543
0.00598486
0.00618538
0.00637593
0.00655552
0.00672322
0.00687816
0.00701954
0.00714667
0.00725895
0.0073559
0.00743713
0.00750239
0.00755159
0.00758473
0.00760199
0.00760368
0.00759024
0.00756227
0.00752051
0.00746582
0.00739917
0.00732168
0.00723455
0.00713908
0.00703666
0.00692872
0.00681678
0.00670237
0.00658703
0.00647231
0.00635974
0.0062508
0.00614695
0.00604956
0.00595993
0.00587926
0.00580875
0.00574956
0.00570092
0.00566128
0.000987446
0.000847444
0.000727137
0.000617907
0.000510648
0.000406326
0.000306042
0.000210239
0.000119381
3.39834e-05
-4.54525e-05
-0.000118453
-0.000184589
-0.000243469
-0.000294742
-0.000338109
-0.000373305
-0.000400105
-0.000418323
-0.000427802
-0.000428411
-0.000420044
-0.000402608
-0.000376029
-0.000340245
-0.000295212
-0.000240891
-0.000177255
-0.000104284
-2.19721e-05
6.96709e-05
0.000170621
0.000280839
0.000400264
0.000528819
0.000666396
0.000812866
0.000968071
0.00113181
0.00130386
0.00148394
0.00167175
0.00186692
0.00206905
0.00227768
0.00249228
0.00271227
0.00293703
0.00316586
0.00339802
0.00363271
0.00386907
0.00410622
0.00434321
0.00457904
0.00481267
0.00504306
0.00526912
0.00548976
0.00570389
0.00591043
0.0061083
0.00629646
0.00647391
0.0066397
0.00679296
0.00693288
0.00705875
0.00716996
0.00726601
0.0073465
0.00741116
0.00745988
0.00749266
0.00750965
0.00751113
0.00749754
0.00746947
0.00742761
0.00737282
0.00730604
0.00722834
0.00714091
0.00704501
0.00694198
0.00683322
0.00672018
0.00660435
0.0064872
0.0063702
0.00625479
0.0061424
0.00603438
0.00593203
0.00583653
0.00574895
0.00567049
0.00560222
0.00554212
0.00548754
0.00113021
0.000969625
0.000833825
0.00071273
0.000595517
0.000483044
0.00037631
0.000275543
0.000180996
9.29914e-05
1.18464e-05
-6.21374e-05
-0.000128679
-0.000187527
-0.000238458
-0.000281284
-0.000315842
-0.00034199
-0.000359614
-0.000368625
-0.000368945
-0.000360503
-0.000343246
-0.000317129
-0.000282114
-0.000238167
-0.000185259
-0.000123366
-5.24699e-05
2.74408e-05
0.000116366
0.000214292
0.000321194
0.000437028
0.000561735
0.000695231
0.000837411
0.000988139
0.00114724
0.00131452
0.00148974
0.00167261
0.00186281
0.00205995
0.0022636
0.00247327
0.00268841
0.0029084
0.00313259
0.00336025
0.00359061
0.00382284
0.00405606
0.00428934
0.00452168
0.00475208
0.00497948
0.0052028
0.00542096
0.00563286
0.00583742
0.00603354
0.00622017
0.00639631
0.00656099
0.00671331
0.00685246
0.0069777
0.00708839
0.00718402
0.00726416
0.00732854
0.007377
0.00740953
0.00742626
0.00742745
0.00741352
0.00738503
0.00734267
0.00728726
0.00721972
0.00714111
0.00705257
0.00695534
0.00685073
0.0067401
0.00662486
0.00650645
0.00638629
0.0062658
0.00614635
0.00602931
0.00591597
0.00580755
0.00570513
0.00560973
0.00552248
0.00544445
0.00537243
0.00530268
0.00126702
0.00108624
0.000935035
0.000801933
0.000674484
0.000553461
0.00043979
0.000333503
0.00023467
0.000143438
5.99577e-05
-1.56302e-05
-8.31828e-05
-0.000142583
-0.000193734
-0.000236549
-0.000270956
-0.000296907
-0.000314363
-0.00032329
-0.000323661
-0.000315454
-0.000298652
-0.000273241
-0.000239201
-0.000196515
-0.000145164
-8.51256e-05
-1.63837e-05
6.10771e-05
0.000147266
0.000242181
0.000345813
0.000458133
0.000579104
0.000708666
0.000846736
0.000993203
0.00114792
0.00131073
0.00148142
0.00165972
0.00184536
0.00203797
0.00223715
0.00244243
0.00265328
0.00286913
0.00308934
0.0033132
0.00353997
0.00376883
0.00399892
0.00422931
0.00445903
0.00468706
0.00491236
0.00513385
0.00535043
0.005561
0.00576447
0.00595972
0.00614568
0.00632134
0.0064857
0.00663785
0.00677693
0.00690218
0.00701294
0.00710866
0.0071889
0.00725334
0.00730181
0.00733428
0.00735082
0.0073517
0.0073373
0.00730817
0.00726498
0.00720851
0.00713969
0.00705953
0.00696916
0.0068698
0.00676272
0.00664928
0.00653084
0.0064088
0.00628454
0.00615945
0.00603486
0.00591208
0.00579236
0.00567687
0.00556662
0.00546254
0.00536581
0.00527747
0.00519319
0.00510818
0.0013956
0.00119507
0.00102863
0.000883498
0.000745653
0.000615812
0.000494846
0.000382622
0.000279033
0.000184069
9.77346e-05
2.00266e-05
-4.90592e-05
-0.000109525
-0.000161384
-0.000204655
-0.000239364
-0.000265541
-0.000283218
-0.00029242
-0.000293175
-0.000285505
-0.00026943
-0.000244965
-0.000212112
-0.000170868
-0.000121225
-6.31663e-05
3.3268e-06
7.82746e-05
0.000161695
0.000253596
0.000353983
0.000462849
0.000580178
0.000705929
0.000840047
0.000982447
0.00113302
0.00129162
0.00145808
0.00163217
0.00181364
0.00200214
0.0021973
0.0023987
0.00260582
0.00281811
0.00303497
0.0032557
0.00347958
0.0037058
0.00393353
0.00416184
0.00438976
0.00461627
0.00484033
0.00506086
0.00527675
0.00548689
0.00569014
0.0058854
0.00607156
0.00624758
0.00641244
0.00656519
0.00670493
0.00683087
0.00694232
0.00703868
0.0071195
0.00718441
0.00723322
0.00726584
0.00728235
0.00728295
0.00726804
0.00723812
0.00719384
0.00713598
0.00706542
0.00698316
0.00689033
0.00678813
0.00667781
0.0065607
0.00643814
0.0063115
0.00618215
0.00605144
0.0059207
0.00579119
0.00566414
0.00554065
0.00542173
0.00530824
0.0052014
0.0051023
0.00500548
0.0049052
0.00151389
0.00129407
0.00111265
0.000955532
0.000807222
0.000668399
0.000539893
0.000421418
0.000312713
0.000213624
0.000124013
4.37447e-05
-2.73138e-05
-8.92836e-05
-0.000142284
-0.000186434
-0.00022185
-0.00024864
-0.0002669
-0.000276718
-0.000278172
-0.000271333
-0.000256254
-0.000232976
-0.000201523
-0.00016191
-0.000114138
-5.8192e-05
5.94712e-06
7.83037e-05
0.000158903
0.000247768
0.000344921
0.000450372
0.000564126
0.00068617
0.00081647
0.000954972
0.00110159
0.00125624
0.00141875
0.00158895
0.00176659
0.00195138
0.00214296
0.00234094
0.00254485
0.00275414
0.00296823
0.00318647
0.00340813
0.00363243
0.00385854
0.00408553
0.00431244
0.00453826
0.00476194
0.00498238
0.00519845
0.00540902
0.00561295
0.0058091
0.00599633
0.00617356
0.00633975
0.00649389
0.00663505
0.00676239
0.00687519
0.00697281
0.00705474
0.00712059
0.00717011
0.0072032
0.00721988
0.00722034
0.00720493
0.00717415
0.00712862
0.00706909
0.00699642
0.00691162
0.00681579
0.00671011
0.00659585
0.00647429
0.00634677
0.00621465
0.0060793
0.00594205
0.00580422
0.00566706
0.00553178
0.00539947
0.0052711
0.00514752
0.00503002
0.00491973
0.00481016
0.00469461
0.00162003
0.00138139
0.00118524
0.00101625
0.000857485
0.000709597
0.000573393
0.000448446
0.000334354
0.00023083
0.000137605
5.44126e-05
-1.89924e-05
-8.28437e-05
-0.000137365
-0.000182772
-0.000219261
-0.000247015
-0.000266195
-0.00027695
-0.00027941
-0.000273685
-0.000259862
-0.000238012
-0.00020818
-0.000170392
-0.000124658
-7.09713e-05
-9.30844e-06
6.03624e-05
0.000138075
0.000223863
0.000317767
0.000419819
0.000530046
0.000648458
0.000775046
0.000909789
0.00105264
0.00120354
0.00136235
0.00152893
0.00170307
0.0018845
0.00207291
0.00226792
0.00246909
0.00267589
0.00288778
0.00310412
0.0033242
0.00354726
0.00377245
0.00399888
0.00422556
0.0044515
0.00467562
0.00489681
0.00511394
0.00532583
0.00553133
0.00572925
0.00591843
0.00609776
0.00626613
0.00642249
0.00656586
0.00669536
0.00681022
0.00690975
0.00699339
0.0070607
0.00711139
0.00714531
0.00716245
0.00716297
0.00714718
0.00711555
0.00706868
0.00700728
0.00693223
0.00684451
0.00674521
0.00663552
0.00651667
0.00638997
0.00625674
0.00611834
0.00597615
0.00583151
0.00568573
0.00554006
0.00539572
0.00525379
0.00511526
0.00498097
0.00485228
0.00473042
0.00460788
0.00447704
0.00171228
0.00145527
0.00124468
0.00106397
0.000894819
0.00073785
0.000593854
0.000462288
0.000342613
0.000234415
0.000137301
5.08919e-05
-2.51717e-05
-9.12295e-05
-0.000147606
-0.000194603
-0.000232493
-0.000261531
-0.000281948
-0.000293945
-0.0002977
-0.000293364
-0.000281058
-0.000260876
-0.000232884
-0.000197124
-0.000153612
-0.000102341
-4.3287e-05
2.35852e-05
9.83195e-05
0.000180968
0.000271588
0.000370234
0.000476951
0.000591774
0.000714728
0.000845827
0.000985059
0.00113238
0.00128771
0.00145092
0.00162184
0.00180024
0.00198583
0.00217827
0.00237713
0.00258194
0.00279216
0.00300716
0.00322628
0.00344873
0.00367369
0.00390027
0.00412748
0.00435432
0.00457971
0.0048025
0.00502154
0.00523564
0.00544359
0.00564419
0.00583624
0.00601855
0.00618998
0.00634943
0.00649586
0.00662833
0.00674602
0.00684818
0.00693418
0.00700355
0.00705593
0.00709112
0.00710909
0.00710995
0.00709397
0.00706158
0.00701335
0.00695
0.00687237
0.00678143
0.00667829
0.00656411
0.00644013
0.00630766
0.00616804
0.00602263
0.00587283
0.00572
0.00556546
0.00541049
0.0052563
0.00510401
0.00495463
0.00480902
0.00466866
0.00453484
0.00439909
0.0042529
0.00178901
0.00151409
0.00128936
0.00109711
0.000917665
0.00075165
0.000599836
0.00046156
0.000336163
0.000223111
0.000121896
3.20319e-05
-4.69541e-05
-0.0001155
-0.00017402
-0.000222899
-0.000262488
-0.000293108
-0.000315053
-0.000328581
-0.000333912
-0.000331233
-0.000320698
-0.000302426
-0.000276503
-0.00024298
-0.000201878
-0.000153195
-9.69051e-05
-3.29655e-05
3.86817e-05
0.000118105
0.000205381
0.000300578
0.000403771
0.000515021
0.000634391
0.000761925
0.000897641
0.00104153
0.00119355
0.0013536
0.00152155
0.0016972
0.00188029
0.00207052
0.00226748
0.00247073
0.00267976
0.00289397
0.00311268
0.00333514
0.00356053
0.00378795
0.00401644
0.00424496
0.00447241
0.00469764
0.00491946
0.00513664
0.00534797
0.00555217
0.00574801
0.00593423
0.00610965
0.00627309
0.00642346
0.00655977
0.00668111
0.00678668
0.00687578
0.00694787
0.00700255
0.00703956
0.00705881
0.00706037
0.00704447
0.0070115
0.006962
0.00689668
0.00681635
0.006722
0.0066147
0.00649564
0.00636606
0.00622727
0.00608064
0.00592757
0.00576945
0.00560769
0.00544363
0.00527858
0.00511379
0.00495044
0.00478955
0.00463204
0.00447948
0.00433331
0.00418408
0.00402241
0.00184868
0.00155629
0.00131773
0.00111414
0.000924539
0.000749552
0.000589933
0.000444905
0.000313695
0.00019566
9.01822e-05
-3.3352e-06
-8.54613e-05
-0.000156733
-0.000217649
-0.00026867
-0.000310225
-0.000342705
-0.000366457
-0.000381787
-0.000388961
-0.000388202
-0.000379694
-0.000363579
-0.000339955
-0.000308886
-0.0002704
-0.000224495
-0.000171143
-0.000110288
-4.186e-05
3.42254e-05
0.00011806
0.000209739
0.000309361
0.000417025
0.000532822
0.000656829
0.000789097
0.000929654
0.00107849
0.00123555
0.00140073
0.00157387
0.00175474
0.00194306
0.00213849
0.00234059
0.00254888
0.00276278
0.00298162
0.00320466
0.00343111
0.00366006
0.00389053
0.00412147
0.00435179
0.00458028
0.00480574
0.00502692
0.00524253
0.00545128
0.00565185
0.00584295
0.00602332
0.00619172
0.00634699
0.00648806
0.00661395
0.00672378
0.00681679
0.00689236
0.00695002
0.00698947
0.00701055
0.00701326
0.00699781
0.00696453
0.00691395
0.00684673
0.00676369
0.0066658
0.00655413
0.00642987
0.00629429
0.0061487
0.00599452
0.00583316
0.00566607
0.00549468
0.00532038
0.00514453
0.00496843
0.00479331
0.00462026
0.00445025
0.00428498
0.00412603
0.00396301
0.00378564
0.00188983
0.0015804
0.00132831
0.0011136
0.000914009
0.00073015
0.000562773
0.000410991
0.000273919
0.000150813
4.09501e-05
-5.63772e-05
-0.000141829
-0.000216026
-0.000279554
-0.000332954
-0.000376726
-0.00041132
-0.000437137
-0.000454533
-0.000463813
-0.000465235
-0.00045901
-0.000445297
-0.000424212
-0.000395828
-0.000360179
-0.00031726
-0.000267037
-0.000209443
-0.000144395
-7.17927e-05
8.4763e-06
9.65326e-05
0.000192507
0.000296528
0.000408723
0.000529199
0.000658044
0.000795323
0.000941062
0.00109525
0.00125781
0.00142862
0.0016075
0.0017942
0.0019884
0.00218971
0.00239766
0.00261168
0.00283115
0.00305533
0.00328342
0.00351453
0.00374768
0.00398179
0.00421575
0.00444833
0.00467831
0.00490437
0.00512521
0.00533947
0.00554576
0.00574274
0.00592907
0.00610344
0.00626462
0.00641145
0.00654286
0.0066579
0.00675571
0.00683561
0.00689705
0.00693966
0.0069632
0.00696763
0.00695309
0.00691989
0.0068685
0.00679956
0.00671388
0.00661241
0.00649623
0.00636655
0.00622463
0.00607185
0.00590962
0.00573943
0.00556275
0.00538107
0.00519584
0.00500849
0.00482038
0.00463282
0.00444695
0.00426383
0.0040853
0.0039131
0.00373588
0.00354251
0.00191108
0.00158502
0.00131971
0.00109411
0.000884695
0.000692085
0.00051702
0.000358514
0.000215571
8.73359e-05
-2.70115e-05
-0.000128268
-0.00021719
-0.000294487
-0.000360825
-0.000416819
-0.000463036
-0.000499982
-0.000528113
-0.00054783
-0.000559475
-0.000563337
-0.000559651
-0.000548595
-0.0005303
-0.000504845
-0.000472269
-0.000432562
-0.000385682
-0.000331552
-0.000270075
-0.000201133
-0.00012459
-4.02954e-05
5.19131e-05
0.000152197
0.000260714
0.000377608
0.000503006
0.000637012
0.000779691
0.000931066
0.00109111
0.00125973
0.00143679
0.00162208
0.00181531
0.00201613
0.00222409
0.00243864
0.00265919
0.002885
0.00311531
0.00334919
0.00358567
0.00382367
0.00406203
0.00429953
0.00453488
0.00476676
0.00499378
0.00521452
0.00542757
0.00563147
0.00582483
0.00600625
0.00617442
0.00632808
0.00646607
0.00658734
0.00669096
0.00677613
0.00684225
0.00688883
0.0069156
0.00692242
0.00690938
0.00687673
0.00682491
0.00675453
0.00666638
0.0065614
0.00644067
0.0063054
0.00615691
0.00599658
0.00582589
0.00564636
0.00545952
0.00526694
0.00507013
0.0048706
0.00466979
0.00446909
0.00426974
0.00407286
0.00388049
0.00369451
0.00350264
0.00329283
0.00191107
0.00156879
0.00129057
0.0010543
0.000835256
0.000634037
0.000451385
0.000286205
0.000137394
4.00248e-06
-0.00011489
-0.000220171
-0.000312688
-0.000393238
-0.000462562
-0.000521348
-0.000570221
-0.000609749
-0.000640436
-0.000662723
-0.000676988
-0.00068355
-0.000682664
-0.00067453
-0.000659287
-0.000637022
-0.000607772
-0.000571525
-0.000528229
-0.000477797
-0.000420115
-0.000355045
-0.000282423
-0.000202069
-0.000113788
-1.73865e-05
8.73285e-05
0.00020054
0.000322413
0.000453096
0.000592691
0.000741262
0.000898823
0.00106533
0.00124069
0.00142472
0.00161719
0.00181776
0.00202602
0.00224146
0.00246348
0.0026914
0.00292442
0.00316165
0.0034021
0.00364467
0.0038882
0.00413142
0.00437303
0.00461163
0.0048458
0.00507406
0.00529491
0.00550684
0.00570835
0.00589797
0.00607428
0.00623593
0.00638164
0.00651028
0.0066208
0.00671232
0.00678411
0.00683563
0.00686649
0.00687649
0.00686564
0.00683415
0.0067824
0.00671097
0.00662063
0.0065123
0.00638707
0.00624616
0.00609092
0.00592278
0.00574325
0.00555393
0.00535642
0.00515235
0.00494333
0.00473094
0.00451674
0.00430221
0.00408868
0.00387738
0.00367054
0.0034702
0.00326312
0.00303632
0.0018885
0.0015304
0.00123957
0.000992875
0.000764398
0.000554729
0.000364599
0.000192813
3.81646e-05
-0.00010039
-0.000223866
-0.000333248
-0.000429469
-0.000513406
-0.000585877
-0.000647637
-0.000699371
-0.000741702
-0.000775179
-0.000800282
-0.000817425
-0.00082695
-0.000829137
-0.000824198
-0.000812284
-0.000793486
-0.00076784
-0.000735326
-0.000695884
-0.000649415
-0.000595788
-0.000534839
-0.000466375
-0.000390184
-0.000306041
-0.000213718
-0.000112983
-3.61304e-06
0.000114602
0.000241847
0.000378271
0.000523979
0.000679034
0.000843442
0.00101715
0.00120002
0.00139186
0.00159237
0.00180116
0.00201777
0.00224162
0.00247204
0.00270826
0.00294937
0.00319438
0.0034422
0.00369162
0.00394138
0.0041901
0.00443637
0.00467869
0.00491551
0.00514526
0.00536636
0.00557721
0.00577624
0.00596192
0.0061328
0.00628749
0.00642473
0.00654337
0.0066424
0.00672101
0.00677854
0.00681449
0.00682859
0.00682078
0.00679117
0.00674012
0.00666815
0.006576
0.00646459
0.00633501
0.0061885
0.00602642
0.00585026
0.0056616
0.00546209
0.00525343
0.00503732
0.00481548
0.00458958
0.00436129
0.00413222
0.00390379
0.00367737
0.00345536
0.00324001
0.00301708
0.00277265
0.00184209
0.00146857
0.00116544
0.000908559
0.00067086
0.000452908
0.000255424
7.71176e-05
-8.33169e-05
-0.000227024
-0.000355111
-0.000468654
-0.000568672
-0.000656119
-0.000731887
-0.000796793
-0.000851585
-0.000896933
-0.000933432
-0.0009616
-0.000981881
-0.000994642
-0.00100018
-0.000998729
-0.00099044
-0.000975407
-0.000953664
-0.000925185
-0.000889901
-0.000847699
-0.000798423
-0.000741883
-0.000677858
-0.000606104
-0.000526364
-0.000438371
-0.000341852
-0.000236541
-0.000122186
1.44235e-06
0.000134537
0.000277256
0.000429713
0.000591963
0.000763997
0.000945733
0.001137
0.00133756
0.00154705
0.00176506
0.00199102
0.0022243
0.00246413
0.00270961
0.00295975
0.00321344
0.00346948
0.00372655
0.00398326
0.00423813
0.00448959
0.00473606
0.00497586
0.00520732
0.00542875
0.00563848
0.00583486
0.00601631
0.00618133
0.00632852
0.00645661
0.00656448
0.00665117
0.00671591
0.00675811
0.00677738
0.00677356
0.00674671
0.00669712
0.00662525
0.00653182
0.00641772
0.00628404
0.00613205
0.00596314
0.00577886
0.00558083
0.0053708
0.00515055
0.00492188
0.00468662
0.00444656
0.00420349
0.00395914
0.00371508
0.00347277
0.00323485
0.00300377
0.00276425
0.00250139
0.00177061
0.00138205
0.00106694
0.000800128
0.000553413
0.000327355
0.000122658
-6.20694e-05
-0.000228231
-0.000377067
-0.00050978
-0.000627534
-0.00073143
-0.000822501
-0.000901705
-0.000969926
-0.00102797
-0.00107655
-0.0011163
-0.00114779
-0.00117147
-0.00118775
-0.00119694
-0.00119928
-0.00119493
-0.00118399
-0.00116648
-0.00114237
-0.00111158
-0.00107399
-0.0010294
-0.000977602
-0.000918346
-0.000851358
-0.000776342
-0.00069299
-0.000600986
-0.00050002
-0.000389796
-0.000270038
-0.000140501
-9.71642e-07
0.000148716
0.000308672
0.000478933
0.000659465
0.000850153
0.00105079
0.00126109
0.00148064
0.00170894
0.00194536
0.00218914
0.00243943
0.00269521
0.00295538
0.00321871
0.00348387
0.00374942
0.00401382
0.00427547
0.00453267
0.0047837
0.00502678
0.0052601
0.00548189
0.00569038
0.00588384
0.00606065
0.00621927
0.00635829
0.00647644
0.00657263
0.00664595
0.00669569
0.00672134
0.00672266
0.0066996
0.00665237
0.00658139
0.00648733
0.00637106
0.00623367
0.00607644
0.00590081
0.00570836
0.00550081
0.00527998
0.00504775
0.00480604
0.00455678
0.00430191
0.00404335
0.00378298
0.0035225
0.00326351
0.00300886
0.00276126
0.00250432
0.00222209
0.00167285
0.00126966
0.000942873
0.00066638
0.000410869
0.000176889
-3.48743e-05
-0.000225912
-0.000397732
-0.000551668
-0.000689014
-0.000811018
-0.000918867
-0.00101367
-0.00109644
-0.00116814
-0.00122962
-0.00128165
-0.0013249
-0.00135996
-0.00138733
-0.00140743
-0.00142058
-0.00142704
-0.00142697
-0.00142046
-0.00140754
-0.00138818
-0.00136227
-0.00132965
-0.00129013
-0.00124347