/*--------------------------------*- C++ -*----------------------------------*\
| =========                 |                                                 |
| \\      /  F ield         | OpenFOAM: The Open Source CFD Toolbox           |
|  \\    /   O peration     | Version:  2512                                  |
|   \\  /    A nd           | Website:  www.openfoam.com                      |
|    \\/     M anipulation  |                                                 |
\*---------------------------------------------------------------------------*/
FoamFile
{
    version     2.0;
    format      ascii;
    arch        "LSB;label=32;scalar=64";
    class       surfaceScalarField;
    location    "0.42";
    object      phi;
}
// * * * * * * * * * * * * * * * * * * * * * * * * * * * * * * * * * * * * * //

dimensions      [0 3 -1 0 0 0 0];

oriented        oriented;

internalField   nonuniform List<scalar> 
19800
(
7.38837e-11
-7.39033e-11
2.26096e-10
-1.52233e-10
3.72894e-10
-1.46785e-10
4.62604e-10
-8.97029e-11
4.68865e-10
-6.25106e-12
3.79494e-10
8.93637e-11
1.90609e-10
1.88893e-10
-9.67005e-11
2.87302e-10
-4.78529e-10
3.81829e-10
-9.49336e-10
4.70808e-10
-1.50266e-09
5.53318e-10
-2.13159e-09
6.28931e-10
-2.82909e-09
6.97492e-10
-3.58817e-09
7.59072e-10
-4.40203e-09
8.13857e-10
-5.26412e-09
8.62089e-10
-6.1682e-09
9.04079e-10
-7.10835e-09
9.40154e-10
-8.07899e-09
9.70643e-10
-9.07487e-09
9.95883e-10
-1.00911e-08
1.01619e-09
-1.11229e-08
1.03184e-09
-1.2166e-08
1.04311e-09
-1.32162e-08
1.05024e-09
-1.42697e-08
1.05345e-09
-1.53226e-08
1.05292e-09
-1.63714e-08
1.0488e-09
-1.74126e-08
1.04122e-09
-1.84429e-08
1.03027e-09
-1.94589e-08
1.01603e-09
-2.04575e-08
9.98552e-10
-2.14353e-08
9.77883e-10
-2.23894e-08
9.54038e-10
-2.33164e-08
9.27027e-10
-2.42132e-08
8.96845e-10
-2.50767e-08
8.63481e-10
-2.59037e-08
8.26931e-10
-2.66908e-08
7.87188e-10
-2.74351e-08
7.44249e-10
-2.81332e-08
6.98119e-10
-2.8782e-08
6.48808e-10
-2.93784e-08
5.96355e-10
-2.99192e-08
5.40806e-10
-3.04014e-08
4.82233e-10
-3.08222e-08
4.20737e-10
-3.11786e-08
3.56428e-10
-3.1468e-08
2.89455e-10
-3.1688e-08
2.19997e-10
-3.18363e-08
1.48251e-10
-3.19107e-08
7.44592e-11
-3.19096e-08
-1.09806e-12
-3.18315e-08
-7.81222e-11
-3.16753e-08
-1.56279e-10
-3.14401e-08
-2.35197e-10
-3.11256e-08
-3.14488e-10
-3.07318e-08
-3.93726e-10
-3.02594e-08
-4.72454e-10
-2.97092e-08
-5.50206e-10
-2.90827e-08
-6.26491e-10
-2.83819e-08
-7.008e-10
-2.76093e-08
-7.72618e-10
-2.67678e-08
-8.41423e-10
-2.58612e-08
-9.06687e-10
-2.48933e-08
-9.6789e-10
-2.38687e-08
-1.02453e-09
-2.27926e-08
-1.07612e-09
-2.16704e-08
-1.12217e-09
-2.05082e-08
-1.16225e-09
-1.93122e-08
-1.19595e-09
-1.80893e-08
-1.22291e-09
-1.68466e-08
-1.24279e-09
-1.55912e-08
-1.25533e-09
-1.43309e-08
-1.2603e-09
-1.30734e-08
-1.25754e-09
-1.18265e-08
-1.24693e-09
-1.0598e-08
-1.22845e-09
-9.3959e-09
-1.20211e-09
-8.22788e-09
-1.16802e-09
-7.10156e-09
-1.12632e-09
-6.0243e-09
-1.07726e-09
-5.00319e-09
-1.02112e-09
-4.04492e-09
-9.58275e-10
-3.15577e-09
-8.89151e-10
-2.34151e-09
-8.1426e-10
-1.60733e-09
-7.3418e-10
-9.5776e-10
-6.49566e-10
-3.96599e-10
-5.61158e-10
7.32089e-11
-4.69804e-10
4.4969e-10
-3.76479e-10
7.31996e-10
-2.82307e-10
9.20644e-10
-1.88647e-10
1.01781e-09
-9.71664e-11
1.0278e-09
-9.99043e-12
9.57723e-10
7.00746e-11
8.18569e-10
1.39146e-10
6.26832e-10
1.91734e-10
4.06796e-10
2.20038e-10
1.94096e-10
2.12701e-10
4.03704e-11
1.53717e-10
4.03698e-11
1.52322e-10
-2.26245e-10
3.85697e-10
-3.8557e-10
5.63296e-10
-3.244e-10
5.9425e-10
-1.20652e-10
4.20984e-10
1.67014e-10
1.13645e-11
4.98995e-10
-6.48767e-10
8.49011e-10
-1.56173e-09
1.20029e-09
-2.72171e-09
1.5418e-09
-4.11762e-09
1.86672e-09
-5.73513e-09
2.17084e-09
-7.55798e-09
2.45178e-09
-9.56884e-09
2.70836e-09
-1.175e-08
2.94026e-09
-1.40839e-08
3.14771e-09
-1.65531e-08
3.3313e-09
-1.91409e-08
3.49189e-09
-2.18312e-08
3.63045e-09
-2.46086e-08
3.74803e-09
-2.74584e-08
3.84572e-09
-3.03668e-08
3.92457e-09
-3.33206e-08
3.98557e-09
-3.63071e-08
4.02965e-09
-3.93145e-08
4.05767e-09
-4.23314e-08
4.07037e-09
-4.53469e-08
4.06842e-09
-4.83505e-08
4.05238e-09
-5.1332e-08
4.02271e-09
-5.42815e-08
3.97981e-09
-5.71895e-08
3.92396e-09
-6.00463e-08
3.85539e-09
-6.28427e-08
3.77427e-09
-6.55693e-08
3.68069e-09
-6.8217e-08
3.57471e-09
-7.07766e-08
3.45638e-09
-7.32388e-08
3.32569e-09
-7.55945e-08
3.18267e-09
-7.78346e-08
3.02731e-09
-7.99501e-08
2.85966e-09
-8.19317e-08
2.67977e-09
-8.37707e-08
2.48776e-09
-8.54581e-08
2.28379e-09
-8.69854e-08
2.06809e-09
-8.83441e-08
1.84098e-09
-8.95262e-08
1.60284e-09
-9.0524e-08
1.35419e-09
-9.13301e-08
1.0956e-09
-9.19379e-08
8.27778e-10
-9.23412e-08
5.51547e-10
-9.25346e-08
2.67823e-10
-9.25133e-08
-2.2333e-11
-9.22737e-08
-3.17747e-10
-9.18129e-08
-6.17142e-10
-9.11289e-08
-9.19114e-10
-9.02213e-08
-1.22215e-09
-8.90903e-08
-1.52466e-09
-8.77378e-08
-1.82494e-09
-8.61668e-08
-2.12121e-09
-8.43817e-08
-2.41163e-09
-8.23882e-08
-2.6943e-09
-8.01935e-08
-2.96729e-09
-7.78063e-08
-3.22865e-09
-7.52366e-08
-3.47643e-09
-7.24958e-08
-3.70869e-09
-6.95967e-08
-3.92355e-09
-6.65537e-08
-4.11919e-09
-6.3382e-08
-4.29386e-09
-6.00983e-08
-4.44593e-09
-5.67203e-08
-4.5739e-09
-5.32668e-08
-4.6764e-09
-4.97574e-08
-4.75225e-09
-4.62123e-08
-4.80043e-09
-4.26525e-08
-4.82013e-09
-3.90992e-08
-4.81077e-09
-3.55742e-08
-4.77197e-09
-3.2099e-08
-4.70361e-09
-2.86953e-08
-4.60581e-09
-2.53844e-08
-4.47894e-09
-2.21871e-08
-4.32363e-09
-1.91236e-08
-4.14077e-09
-1.62132e-08
-3.93151e-09
-1.34742e-08
-3.69728e-09
-1.09236e-08
-3.43977e-09
-8.57695e-09
-3.16094e-09
-6.44807e-09
-2.86306e-09
-4.54893e-09
-2.54871e-09
-2.88927e-09
-2.22082e-09
-1.47635e-09
-1.88273e-09
-3.14551e-10
-1.53827e-09
5.9507e-10
-1.19192e-09
1.25539e-09
-8.48974e-10
1.67403e-09
-5.15814e-10
1.8644e-09
-2.00361e-10
1.84716e-09
8.73118e-11
1.65214e-09
3.34158e-10
1.32082e-09
5.23055e-10
9.09145e-10
6.3171e-10
4.90083e-10
6.31755e-10
1.5316e-10
4.9064e-10
1.93536e-10
1.47675e-10
-3.73906e-10
3.26347e-10
-5.64243e-10
3.76102e-10
-3.74141e-10
1.89882e-10
6.55668e-11
-3.03735e-10
6.60637e-10
-1.14784e-09
1.3431e-09
-2.3639e-09
2.06507e-09
-3.9573e-09
2.79369e-09
-5.92215e-09
3.50665e-09
-8.24458e-09
4.18915e-09
-1.09054e-08
4.83163e-09
-1.38818e-08
5.42822e-09
-1.71491e-08
5.97567e-09
-2.06814e-08
6.47254e-09
-2.44525e-08
6.91874e-09
-2.84362e-08
7.31502e-09
-3.2607e-08
7.66274e-09
-3.69402e-08
7.96363e-09
-4.14118e-08
8.21965e-09
-4.59989e-08
8.43282e-09
-5.06795e-08
8.60521e-09
-5.54327e-08
8.73878e-09
-6.02385e-08
8.8354e-09
-6.50776e-08
8.8968e-09
-6.99318e-08
8.92451e-09
-7.47832e-08
8.9199e-09
-7.9615e-08
8.88414e-09
-8.44105e-08
8.81822e-09
-8.91537e-08
8.72297e-09
-9.38288e-08
8.59903e-09
-9.84203e-08
8.44691e-09
-1.02913e-07
8.26698e-09
-1.07292e-07
8.0595e-09
-1.11542e-07
7.82466e-09
-1.15648e-07
7.56257e-09
-1.19596e-07
7.27332e-09
-1.2337e-07
6.95699e-09
-1.26956e-07
6.61368e-09
-1.3034e-07
6.24351e-09
-1.33507e-07
5.8467e-09
-1.36443e-07
5.42355e-09
-1.39134e-07
4.9745e-09
-1.41566e-07
4.50012e-09
-1.43726e-07
4.00115e-09
-1.45601e-07
3.47849e-09
-1.4718e-07
2.93329e-09
-1.48452e-07
2.36688e-09
-1.49405e-07
1.78082e-09
-1.5003e-07
1.17695e-09
-1.5032e-07
5.57313e-10
-1.50266e-07
-7.57945e-11
-1.49864e-07
-7.19811e-10
-1.49109e-07
-1.37193e-09
-1.47999e-07
-2.02914e-09
-1.46533e-07
-2.68816e-09
-1.44712e-07
-3.34552e-09
-1.4254e-07
-3.99759e-09
-1.4002e-07
-4.64054e-09
-1.37162e-07
-5.27042e-09
-1.33973e-07
-5.88315e-09
-1.30466e-07
-6.47462e-09
-1.26654e-07
-7.04066e-09
-1.22553e-07
-7.5771e-09
-1.18182e-07
-8.07984e-09
-1.1356e-07
-8.54486e-09
-1.08711e-07
-8.96829e-09
-1.03659e-07
-9.34641e-09
-9.84289e-08
-9.67579e-09
-9.30496e-08
-9.95323e-09
-8.75502e-08
-1.01758e-08
-8.19613e-08
-1.03411e-08
-7.63149e-08
-1.04469e-08
-7.06435e-08
-1.04915e-08
-6.49805e-08
-1.04737e-08
-5.93597e-08
-1.03928e-08
-5.38148e-08
-1.02485e-08
-4.83796e-08
-1.00411e-08
-4.30871e-08
-9.77142e-09
-3.79698e-08
-9.44089e-09
-3.30591e-08
-9.05146e-09
-2.8385e-08
-8.60566e-09
-2.39757e-08
-8.1066e-09
-1.98574e-08
-7.55801e-09
-1.60541e-08
-6.96421e-09
-1.2587e-08
-6.3302e-09
-9.47409e-09
-5.66164e-09
-6.72991e-09
-4.96499e-09
-4.36501e-09
-4.24761e-09
-2.38534e-09
-3.51794e-09
-7.91569e-10
-2.78571e-09
4.21779e-10
-2.06233e-09
1.26735e-09
-1.36139e-09
1.7663e-09
-6.99307e-10
1.94998e-09
-9.63729e-11
1.8619e-09
4.22237e-10
1.55998e-09
8.24973e-10
1.11894e-09
1.07275e-09
6.32045e-10
1.11865e-09
2.11954e-10
9.10738e-10
4.05493e-10
9.20225e-11
-4.6593e-10
1.24952e-10
-5.97165e-10
-6.13348e-11
-1.87854e-10
-5.76467e-10
5.80702e-10
-1.49527e-09
1.57943e-09
-2.86434e-09
2.71217e-09
-4.70788e-09
3.90861e-09
-7.03273e-09
5.11853e-09
-9.83265e-09
6.30659e-09
-1.30918e-08
7.44835e-09
-1.67876e-08
8.5274e-09
-2.08926e-08
9.5332e-09
-2.53764e-08
1.04594e-08
-3.02067e-08
1.13029e-08
-3.53507e-08
1.20627e-08
-4.07749e-08
1.27393e-08
-4.64467e-08
1.33345e-08
-5.23338e-08
1.38507e-08
-5.84049e-08
1.42908e-08
-6.46299e-08
1.46578e-08
-7.09797e-08
1.4955e-08
-7.74263e-08
1.51854e-08
-8.39429e-08
1.5352e-08
-9.05037e-08
1.54576e-08
-9.70839e-08
1.55047e-08
-1.03659e-07
1.54954e-08
-1.10207e-07
1.54318e-08
-1.16704e-07
1.53155e-08
-1.23129e-07
1.51479e-08
-1.2946e-07
1.49301e-08
-1.35677e-07
1.4663e-08
-1.41757e-07
1.43473e-08
-1.47681e-07
1.39834e-08
-1.53428e-07
1.35717e-08
-1.58978e-07
1.31126e-08
-1.64311e-07
1.26062e-08
-1.69407e-07
1.20528e-08
-1.74245e-07
1.14526e-08
-1.78808e-07
1.08059e-08
-1.83074e-07
1.01133e-08
-1.87026e-07
9.37531e-09
-1.90644e-07
8.59281e-09
-1.93911e-07
7.76688e-09
-1.96809e-07
6.89888e-09
-1.99321e-07
5.99049e-09
-2.01431e-07
5.04371e-09
-2.03125e-07
4.06095e-09
-2.0439e-07
3.04497e-09
-2.05212e-07
1.99894e-09
-2.05581e-07
9.26462e-10
-2.05488e-07
-1.6847e-10
-2.04926e-07
-1.28144e-09
-2.03891e-07
-2.40763e-09
-2.02378e-07
-3.5418e-09
-2.00388e-07
-4.67838e-09
-1.97922e-07
-5.81143e-09
-1.94985e-07
-6.93469e-09
-1.91584e-07
-8.04168e-09
-1.87728e-07
-9.12565e-09
-1.83432e-07
-1.01797e-08
-1.7871e-07
-1.11968e-08
-1.73581e-07
-1.21699e-08
-1.68066e-07
-1.30919e-08
-1.6219e-07
-1.39559e-08
-1.5598e-07
-1.47551e-08
-1.49465e-07
-1.54829e-08
-1.42678e-07
-1.61332e-08
-1.35654e-07
-1.67e-08
-1.28429e-07
-1.71779e-08
-1.21043e-07
-1.75622e-08
-1.13535e-07
-1.78486e-08
-1.05949e-07
-1.80336e-08
-9.83259e-08
-1.81142e-08
-9.07112e-08
-1.80884e-08
-8.31489e-08
-1.79551e-08
-7.56835e-08
-1.77138e-08
-6.83594e-08
-1.73652e-08
-6.12202e-08
-1.69106e-08
-5.43086e-08
-1.63526e-08
-4.76656e-08
-1.56944e-08
-4.13306e-08
-1.49406e-08
-3.53406e-08
-1.40966e-08
-2.973e-08
-1.31687e-08
-2.45297e-08
-1.21645e-08
-1.97673e-08
-1.10926e-08
-1.54661e-08
-9.96287e-09
-1.16445e-08
-8.78652e-09
-8.3159e-09
-7.57624e-09
-5.48735e-09
-6.3465e-09
-3.15913e-09
-5.11393e-09
-1.32366e-09
-3.89779e-09
3.56316e-11
-2.72067e-09
9.45712e-10
-1.60939e-09
1.44543e-09
-5.96098e-10
1.58737e-09
2.80296e-10
1.43975e-09
9.72611e-10
1.08844e-09
1.42406e-09
6.3919e-10
1.5679e-09
2.20847e-10
1.32909e-09
6.26339e-10
9.31415e-12
-4.75235e-10
-1.63365e-10
-4.24485e-10
-6.61269e-10
3.1006e-10
-1.58617e-09
1.50559e-09
-3.00852e-09
3.00179e-09
-4.97284e-09
4.6765e-09
-7.50225e-09
6.43801e-09
-1.06026e-08
8.21891e-09
-1.42664e-08
9.97035e-09
-1.84756e-08
1.16576e-08
-2.32047e-08
1.32565e-08
-2.84225e-08
1.4751e-08
-3.40942e-08
1.61311e-08
-4.01824e-08
1.73911e-08
-4.66486e-08
1.85289e-08
-5.34538e-08
1.95445e-08
-6.0559e-08
2.04397e-08
-6.79257e-08
2.12174e-08
-7.55163e-08
2.18814e-08
-8.32944e-08
2.24359e-08
-9.12246e-08
2.28851e-08
-9.92726e-08
2.32334e-08
-1.07406e-07
2.34849e-08
-1.15591e-07
2.36435e-08
-1.238e-07
2.37128e-08
-1.32e-07
2.36961e-08
-1.40164e-07
2.3596e-08
-1.48264e-07
2.34151e-08
-1.56271e-07
2.31554e-08
-1.6416e-07
2.28185e-08
-1.71903e-07
2.24059e-08
-1.79474e-07
2.19186e-08
-1.86848e-07
2.13573e-08
-1.93999e-07
2.07229e-08
-2.00902e-07
2.00156e-08
-2.07532e-07
1.92361e-08
-2.13864e-07
1.83847e-08
-2.19873e-07
1.7462e-08
-2.25536e-07
1.64686e-08
-2.30828e-07
1.54053e-08
-2.35726e-07
1.42733e-08
-2.40207e-07
1.30739e-08
-2.44249e-07
1.18088e-08
-2.4783e-07
1.04804e-08
-2.50931e-07
9.0912e-09
-2.53532e-07
7.64442e-09
-2.55615e-07
6.14377e-09
-2.57163e-07
4.59354e-09
-2.58163e-07
2.99862e-09
-2.58601e-07
1.36449e-09
-2.58467e-07
-3.02727e-10
-2.57752e-07
-1.9963e-09
-2.56451e-07
-3.70893e-09
-2.5456e-07
-5.43269e-09
-2.52079e-07
-7.15916e-09
-2.49011e-07
-8.87938e-09
-2.45362e-07
-1.0584e-08
-2.4114e-07
-1.22631e-08
-2.36359e-07
-1.39067e-08
-2.31034e-07
-1.55045e-08
-2.25185e-07
-1.70458e-08
-2.18835e-07
-1.85202e-08
-2.1201e-07
-1.99171e-08
-2.0474e-07
-2.12261e-08
-1.97058e-07
-2.24371e-08
-1.89e-07
-2.35403e-08
-1.80607e-07
-2.45264e-08
-1.7192e-07
-2.53867e-08
-1.62985e-07
-2.61133e-08
-1.53848e-07
-2.66988e-08
-1.4456e-07
-2.71371e-08
-1.35171e-07
-2.74229e-08
-1.25733e-07
-2.75518e-08
-1.163e-07
-2.7521e-08
-1.06927e-07
-2.73286e-08
-9.76664e-08
-2.69742e-08
-8.85729e-08
-2.64587e-08
-7.96992e-08
-2.57843e-08
-7.1097e-08
-2.49548e-08
-6.28161e-08
-2.39753e-08
-5.49041e-08
-2.28526e-08
-4.74058e-08
-2.15949e-08
-4.03624e-08
-2.0212e-08
-3.38115e-08
-1.87154e-08
-2.77861e-08
-1.7118e-08
-2.23139e-08
-1.5435e-08
-1.74172e-08
-1.36832e-08
-1.31116e-08
-1.18819e-08
-9.40529e-09
-1.00528e-08
-6.29863e-09
-8.2206e-09
-3.78262e-09
-6.4138e-09
-1.83805e-09
-4.66525e-09
-4.34147e-10
-3.0133e-09
4.72798e-10
-1.50304e-09
9.40931e-10
-1.87829e-10
1.04446e-09
8.69073e-10
8.75685e-10
1.59283e-09
5.47326e-10
1.89627e-09
1.96901e-10
1.67951e-09
8.23241e-10
-8.71908e-11
-3.88053e-10
-5.02029e-10
-9.63756e-12
-1.36174e-09
1.16977e-09
-2.75277e-09
2.89663e-09
-4.73558e-09
4.98459e-09
-7.34812e-09
7.28903e-09
-1.06091e-08
9.69898e-09
-1.45211e-08
1.2131e-08
-1.90738e-08
1.45231e-08
-2.42465e-08
1.68303e-08
-3.00106e-08
1.90205e-08
-3.63313e-08
2.10718e-08
-4.31702e-08
2.29699e-08
-5.04855e-08
2.47065e-08
-5.82341e-08
2.62775e-08
-6.6372e-08
2.76824e-08
-7.4855e-08
2.89227e-08
-8.36395e-08
3.00018e-08
-9.26822e-08
3.09242e-08
-1.01941e-07
3.16949e-08
-1.11376e-07
3.23195e-08
-1.20946e-07
3.28034e-08
-1.30613e-07
3.3152e-08
-1.40339e-07
3.33703e-08
-1.5009e-07
3.34632e-08
-1.59829e-07
3.34349e-08
-1.69522e-07
3.32891e-08
-1.79136e-07
3.30291e-08
-1.88638e-07
3.26576e-08
-1.97996e-07
3.21771e-08
-2.0718e-07
3.15893e-08
-2.16157e-07
3.08958e-08
-2.24897e-07
3.00978e-08
-2.33371e-07
2.91963e-08
-2.41547e-07
2.81921e-08
-2.49397e-07
2.70859e-08
-2.56891e-07
2.58786e-08
-2.64e-07
2.45709e-08
-2.70695e-07
2.3164e-08
-2.76949e-07
2.16592e-08
-2.82734e-07
2.00581e-08
-2.88023e-07
1.8363e-08
-2.92791e-07
1.65763e-08
-2.97012e-07
1.47013e-08
-3.00662e-07
1.2742e-08
-3.03721e-07
1.07028e-08
-3.06166e-07
8.58906e-09
-3.07979e-07
6.40693e-09
-3.09144e-07
4.16333e-09
-3.09646e-07
1.86599e-09
-3.09472e-07
-4.76487e-10
-3.08613e-07
-2.85466e-09
-3.07064e-07
-5.25829e-09
-3.0482e-07
-7.67634e-09
-3.01883e-07
-1.00971e-08
-2.98254e-07
-1.2508e-08
-2.93942e-07
-1.48961e-08
-2.88957e-07
-1.72477e-08
-2.83315e-07
-1.9549e-08
-2.77034e-07
-2.17854e-08
-2.70137e-07
-2.39426e-08
-2.62652e-07
-2.60059e-08
-2.54608e-07
-2.79607e-08
-2.46041e-07
-2.97928e-08
-2.3699e-07
-3.14881e-08
-2.27497e-07
-3.30332e-08
-2.17609e-07
-3.44153e-08
-2.07373e-07
-3.56224e-08
-1.96843e-07
-3.66435e-08
-1.86073e-07
-3.74687e-08
-1.75121e-07
-3.80894e-08
-1.64045e-07
-3.84982e-08
-1.52908e-07
-3.86895e-08
-1.41769e-07
-3.86591e-08
-1.30693e-07
-3.84047e-08
-1.19742e-07
-3.79256e-08
-1.08978e-07
-3.72231e-08
-9.84614e-08
-3.63005e-08
-8.82531e-08
-3.51631e-08
-7.84104e-08
-3.3818e-08
-6.89882e-08
-3.22748e-08
-6.00383e-08
-3.05449e-08
-5.16083e-08
-2.8642e-08
-4.37415e-08
-2.65821e-08
-3.64759e-08
-2.43836e-08
-2.98435e-08
-2.20674e-08
-2.38698e-08
-1.9657e-08
-1.85727e-08
-1.7179e-08
-1.39622e-08
-1.46634e-08
-1.00387e-08
-1.2144e-08
-6.793e-09
-9.65956e-09
-4.20434e-09
-7.25391e-09
-2.23993e-09
-4.97771e-09
-8.53452e-10
-2.88952e-09
1.61291e-11
-1.05741e-09
4.46006e-10
4.39189e-10
5.31161e-10
1.50768e-09
3.86777e-10
2.04066e-09
1.52109e-10
1.91418e-09
9.75354e-10
-1.89941e-10
-1.98101e-10
-8.6735e-10
6.67762e-10
-2.12012e-09
2.42255e-09
-4.01461e-09
4.79113e-09
-6.59732e-09
7.5673e-09
-9.89624e-09
1.0588e-08
-1.39229e-08
1.37256e-08
-1.86746e-08
1.68826e-08
-2.41366e-08
1.99851e-08
-3.02845e-08
2.29781e-08
-3.70861e-08
2.58221e-08
-4.45034e-08
2.84891e-08
-5.2494e-08
3.09605e-08
-6.10125e-08
3.3225e-08
-7.00116e-08
3.52767e-08
-7.9443e-08
3.71138e-08
-8.92582e-08
3.87379e-08
-9.94087e-08
4.01523e-08
-1.09847e-07
4.13622e-08
-1.20525e-07
4.23735e-08
-1.31399e-07
4.31928e-08
-1.42422e-07
4.38268e-08
-1.53552e-07
4.42821e-08
-1.64747e-07
4.45648e-08
-1.75964e-07
4.4681e-08
-1.87165e-07
4.4636e-08
-1.98311e-07
4.44344e-08
-2.09362e-07
4.40805e-08
-2.20282e-07
4.35778e-08
-2.31035e-07
4.29293e-08
-2.41583e-07
4.21375e-08
-2.51892e-07
4.12045e-08
-2.61926e-07
4.01318e-08
-2.7165e-07
3.89209e-08
-2.81031e-07
3.7573e-08
-2.90034e-07
3.60892e-08
-2.98626e-07
3.44707e-08
-3.06774e-07
3.27188e-08
-3.14445e-07
3.08351e-08
-3.21608e-07
2.88215e-08
-3.2823e-07
2.66805e-08
-3.34282e-07
2.4415e-08
-3.39734e-07
2.20287e-08
-3.44559e-07
1.95261e-08
-3.4873e-07
1.69125e-08
-3.52221e-07
1.4194e-08
-3.5501e-07
1.13779e-08
-3.57075e-07
8.47222e-09
-3.58398e-07
5.48639e-09
-3.58963e-07
2.4307e-09
-3.58756e-07
-6.83421e-10
-3.57767e-07
-3.84347e-09
-3.5599e-07
-7.03589e-09
-3.5342e-07
-1.02461e-08
-3.50058e-07
-1.34586e-08
-3.45909e-07
-1.6657e-08
-3.40981e-07
-1.98241e-08
-3.35287e-07
-2.2942e-08
-3.28843e-07
-2.59925e-08
-3.21672e-07
-2.89567e-08
-3.13799e-07
-3.18156e-08
-3.05255e-07
-3.45501e-08
-2.96074e-07
-3.71411e-08
-2.86297e-07
-3.957e-08
-2.75967e-07
-4.18184e-08
-2.65131e-07
-4.38687e-08
-2.53842e-07
-4.57043e-08
-2.42155e-07
-4.73095e-08
-2.30129e-07
-4.86699e-08
-2.17825e-07
-4.97727e-08
-2.05308e-07
-5.06065e-08
-1.92644e-07
-5.11619e-08
-1.79902e-07
-5.14315e-08
-1.67151e-07
-5.14098e-08
-1.54462e-07
-5.10939e-08
-1.41905e-07
-5.04829e-08
-1.29549e-07
-4.95787e-08
-1.17464e-07
-4.83855e-08
-1.05717e-07
-4.69103e-08
-9.43721e-08
-4.51628e-08
-8.34915e-08
-4.31554e-08
-7.31332e-08
-4.09032e-08
-6.33507e-08
-3.84245e-08
-5.41926e-08
-3.57403e-08
-4.57015e-08
-3.28747e-08
-3.79136e-08
-2.98553e-08
-3.08576e-08
-2.6713e-08
-2.4554e-08
-2.34825e-08
-1.90145e-08
-2.02029e-08
-1.42408e-08
-1.69178e-08
-1.02238e-08
-1.36766e-08
-6.94268e-09
-1.0535e-08
-4.36411e-09
-7.55628e-09
-2.44092e-09
-4.81271e-09
-1.11128e-09
-2.38705e-09
-2.97569e-10
-3.74516e-10
9.5087e-11
1.11503e-09
1.80561e-10
1.95518e-09
9.45175e-11
2.00023e-09
1.06988e-09
-2.94553e-10
9.6443e-11
-1.24469e-09
1.6179e-09
-2.90802e-09
4.08587e-09
-5.32885e-09
7.21195e-09
-8.53708e-09
1.07755e-08
-1.25483e-08
1.45992e-08
-1.73647e-08
1.8542e-08
-2.29762e-08
2.24942e-08
-2.93626e-08
2.63715e-08
-3.64947e-08
3.01102e-08
-4.4336e-08
3.36635e-08
-5.28449e-08
3.69979e-08
-6.19751e-08
4.00907e-08
-7.16776e-08
4.29275e-08
-8.19013e-08
4.55004e-08
-9.25941e-08
4.78066e-08
-1.03703e-07
4.98471e-08
-1.15177e-07
5.16255e-08
-1.26962e-07
5.31473e-08
-1.39008e-07
5.44195e-08
-1.51264e-07
5.54494e-08
-1.63682e-07
5.6245e-08
-1.76214e-07
5.68139e-08
-1.88813e-07
5.71637e-08
-2.01433e-07
5.73013e-08
-2.14031e-07
5.72333e-08
-2.26562e-07
5.69653e-08
-2.38984e-07
5.65024e-08
-2.51255e-07
5.5849e-08
-2.63334e-07
5.50089e-08
-2.75182e-07
5.39851e-08
-2.86758e-07
5.27802e-08
-2.98022e-07
5.13964e-08
-3.08937e-07
4.98355e-08
-3.19463e-07
4.80993e-08
-3.29563e-07
4.61892e-08
-3.39199e-07
4.4107e-08
-3.48335e-07
4.18545e-08
-3.56934e-07
3.94339e-08
-3.6496e-07
3.6848e-08
-3.7238e-07
3.40999e-08
-3.79159e-07
3.11937e-08
-3.85264e-07
2.81344e-08
-3.90666e-07
2.49276e-08
-3.95334e-07
2.15804e-08
-3.99241e-07
1.81008e-08
-4.02361e-07
1.44981e-08
-4.04671e-07
1.07828e-08
-4.06152e-07
6.96677e-09
-4.06784e-07
3.06328e-09
-4.06555e-07
-9.13106e-10
-4.05452e-07
-4.94646e-09
-4.03468e-07
-9.01956e-09
-4.006e-07
-1.31139e-08
-3.96849e-07
-1.72099e-08
-3.92219e-07
-2.12868e-08
-3.8672e-07
-2.53229e-08
-3.80366e-07
-2.92958e-08
-3.73177e-07
-3.31821e-08
-3.65175e-07
-3.69582e-08
-3.56391e-07
-4.06003e-08
-3.46857e-07
-4.40841e-08
-3.36612e-07
-4.73859e-08
-3.257e-07
-5.0482e-08
-3.14169e-07
-5.33495e-08
-3.02071e-07
-5.59662e-08
-2.89464e-07
-5.83112e-08
-2.76409e-07
-6.03648e-08
-2.6297e-07
-6.2109e-08
-2.49215e-07
-6.35275e-08
-2.35216e-07
-6.46062e-08
-2.21044e-07
-6.53333e-08
-2.06776e-07
-6.56993e-08
-1.92489e-07
-6.56975e-08
-1.78259e-07
-6.53241e-08
-1.64163e-07
-6.45783e-08
-1.5028e-07
-6.34622e-08
-1.36684e-07
-6.19815e-08
-1.23449e-07
-6.01447e-08
-1.10648e-07
-5.79644e-08
-9.8347e-08
-5.5456e-08
-8.66113e-08
-5.26389e-08
-7.54997e-08
-4.95361e-08
-6.50657e-08
-4.61742e-08
-5.53568e-08
-4.25837e-08
-4.64128e-08
-3.87993e-08
-3.82661e-08
-3.48597e-08
-3.09401e-08
-3.08086e-08
-2.44485e-08
-2.66945e-08
-1.87948e-08
-2.25715e-08
-1.39712e-08
-1.85002e-08
-9.95782e-09
-1.45484e-08
-6.72188e-09
-1.07922e-08
-4.21695e-09
-7.31763e-09
-2.38215e-09
-4.22185e-09
-1.14129e-09
-1.61536e-09
-4.02008e-10
3.75756e-10
-5.45687e-11
1.60774e-09
2.95377e-11
1.91613e-09
1.09941e-09
-3.98695e-10
4.95151e-10
-1.62482e-09
2.84403e-09
-3.70683e-09
6.16788e-09
-6.6662e-09
1.01713e-08
-1.05149e-08
1.46242e-08
-1.52543e-08
1.93387e-08
-2.08758e-08
2.41634e-08
-2.73606e-08
2.8979e-08
-3.46814e-08
3.36922e-08
-4.28032e-08
3.82321e-08
-5.16851e-08
4.25454e-08
-6.12808e-08
4.65936e-08
-7.15403e-08
5.03502e-08
-8.24108e-08
5.37979e-08
-9.38375e-08
5.69271e-08
-1.05765e-07
5.97339e-08
-1.18136e-07
6.22186e-08
-1.30896e-07
6.4385e-08
-1.43987e-07
6.62391e-08
-1.57356e-07
6.77885e-08
-1.70949e-07
6.90416e-08
-1.84711e-07
7.00074e-08
-1.98592e-07
7.06947e-08
-2.1254e-07
7.11122e-08
-2.26507e-07
7.12681e-08
-2.40444e-07
7.11698e-08
-2.54302e-07
7.08241e-08
-2.68037e-07
7.02369e-08
-2.81601e-07
6.94136e-08
-2.94951e-07
6.83585e-08
-3.08041e-07
6.70755e-08
-3.20829e-07
6.55676e-08
-3.3327e-07
6.38377e-08
-3.45323e-07
6.18881e-08
-3.56945e-07
5.9721e-08
-3.68094e-07
5.73384e-08
-3.78729e-07
5.47426e-08
-3.88811e-07
5.19361e-08
-3.98299e-07
4.89218e-08
-4.07154e-07
4.57033e-08
-4.15339e-07
4.22847e-08
-4.22817e-07
3.86714e-08
-4.29552e-07
3.48695e-08
-4.35511e-07
3.08864e-08
-4.40661e-07
2.67308e-08
-4.44973e-07
2.24129e-08
-4.48419e-07
1.79442e-08
-4.50974e-07
1.33379e-08
-4.52616e-07
8.60875e-09
-4.53326e-07
3.77307e-09
-4.53088e-07
-1.1511e-09
-4.51891e-07
-6.14413e-09
-4.49725e-07
-1.11848e-08
-4.46589e-07
-1.62504e-08
-4.42482e-07
-2.13168e-08
-4.3741e-07
-2.63586e-08
-4.31384e-07
-3.13492e-08
-4.24419e-07
-3.6261e-08
-4.16535e-07
-4.10657e-08
-4.07759e-07
-4.57343e-08
-3.98122e-07
-5.02375e-08
-3.8766e-07
-5.4546e-08
-3.76415e-07
-5.86304e-08
-3.64435e-07
-6.24621e-08
-3.51772e-07
-6.60129e-08
-3.38482e-07
-6.9256e-08
-3.24628e-07
-7.21656e-08
-3.10275e-07
-7.47177e-08
-2.95493e-07
-7.68904e-08
-2.80357e-07
-7.86637e-08
-2.64943e-07
-8.00205e-08
-2.4933e-07
-8.09462e-08
-2.336e-07
-8.14293e-08
-2.17835e-07
-8.14617e-08
-2.02121e-07
-8.10386e-08
-1.8654e-07
-8.0159e-08
-1.71177e-07
-7.88256e-08
-1.56113e-07
-7.70451e-08
-1.4143e-07
-7.48284e-08
-1.27204e-07
-7.21904e-08
-1.13509e-07
-6.91503e-08
-1.00416e-07
-6.57319e-08
-8.79894e-08
-6.19631e-08
-7.6287e-08
-5.78765e-08
-6.53611e-08
-5.35096e-08
-5.52559e-08
-4.89045e-08
-4.60072e-08
-4.41084e-08
-3.76417e-08
-3.91741e-08
-3.01759e-08
-3.41603e-08
-2.36155e-08
-2.91318e-08
-1.79549e-08
-2.41608e-08
-1.3176e-08
-1.93273e-08
-9.24773e-09
-1.47204e-08
-6.12571e-09
-1.04396e-08
-3.75132e-09
-6.59624e-09
-2.0514e-09
-3.31527e-09
-9.37783e-10
-7.37861e-10
-3.06849e-10
9.76813e-10
-3.93007e-11
1.64859e-09
1.06011e-09
-5.0108e-10
9.96228e-10
-2.00221e-09
4.34516e-09
-4.50454e-09
8.67021e-09
-8.00693e-09
1.36737e-08
-1.25028e-08
1.91201e-08
-1.79786e-08
2.48145e-08
-2.44133e-08
3.05982e-08
-3.17786e-08
3.63442e-08
-4.0039e-08
4.19527e-08
-4.91532e-08
4.73462e-08
-5.90744e-08
5.24666e-08
-6.97518e-08
5.7271e-08
-8.1131e-08
6.17294e-08
-9.31554e-08
6.58223e-08
-1.05767e-07
6.95384e-08
-1.18905e-07
7.28726e-08
-1.32512e-07
7.5825e-08
-1.46526e-07
7.83996e-08
-1.6089e-07
8.06027e-08
-1.75544e-07
8.24426e-08
-1.90431e-07
8.39286e-08
-2.05495e-07
8.50709e-08
-2.20679e-07
8.58793e-08
-2.35931e-07
8.63636e-08
-2.51196e-07
8.65331e-08
-2.66422e-07
8.63964e-08
-2.81559e-07
8.59612e-08
-2.96557e-07
8.52344e-08
-3.11365e-07
8.42221e-08
-3.25936e-07
8.29294e-08
-3.40222e-07
8.13608e-08
-3.54174e-07
7.95201e-08
-3.67747e-07
7.74107e-08
-3.80894e-07
7.50353e-08
-3.9357e-07
7.23968e-08
-4.05729e-07
6.94978e-08
-4.17328e-07
6.63412e-08
-4.28322e-07
6.29301e-08
-4.38668e-07
5.92683e-08
-4.48325e-07
5.53602e-08
-4.57252e-07
5.12113e-08
-4.65408e-07
4.68279e-08
-4.72757e-07
4.22179e-08
-4.79261e-07
3.73902e-08
-4.84885e-07
3.23557e-08
-4.89599e-07
2.71265e-08
-4.93372e-07
2.17169e-08
-4.96176e-07
1.61427e-08
-4.97989e-07
1.04218e-08
-4.9879e-07
4.57398e-09
-4.98562e-07
-1.37909e-09
-4.97293e-07
-7.41378e-09
-4.94973e-07
-1.35046e-08
-4.91599e-07
-1.96244e-08
-4.87172e-07
-2.57441e-08
-4.81697e-07
-3.18333e-08
-4.75186e-07
-3.78603e-08
-4.67655e-07
-4.3792e-08
-4.59126e-07
-4.95945e-08
-4.49627e-07
-5.52333e-08
-4.39191e-07
-6.06733e-08
-4.27858e-07
-6.58795e-08
-4.15671e-07
-7.08169e-08
-4.02682e-07
-7.54512e-08
-3.88946e-07
-7.9749e-08
-3.74524e-07
-8.36779e-08
-3.59482e-07
-8.72074e-08
-3.43891e-07
-9.03088e-08
-3.27826e-07
-9.29557e-08
-3.11365e-07
-9.51245e-08
-2.94591e-07
-9.67944e-08
-2.7759e-07
-9.79481e-08
-2.60447e-07
-9.85719e-08
-2.43253e-07
-9.86558e-08
-2.26097e-07
-9.81942e-08
-2.09071e-07
-9.71858e-08
-1.92262e-07
-9.56338e-08
-1.75761e-07
-9.35461e-08
-1.59654e-07
-9.09356e-08
-1.44024e-07
-8.78202e-08
-1.28952e-07
-8.42228e-08
-1.14512e-07
-8.01716e-08
-1.00775e-07
-7.57001e-08
-8.78044e-08
-7.08472e-08
-7.56567e-08
-6.56574e-08
-6.43804e-08
-6.01807e-08
-5.40155e-08
-5.44733e-08
-4.45921e-08
-4.85975e-08
-3.61302e-08
-4.26222e-08
-2.86385e-08
-3.66235e-08
-2.2114e-08
-3.06853e-08
-1.65414e-08
-2.48999e-08
-1.18924e-08
-1.93694e-08
-8.12544e-09
-1.42066e-08
-5.1854e-09
-9.53627e-09
-3.00329e-09
-5.49737e-09
-1.49636e-09
-2.2448e-09
-5.68252e-10
4.87108e-11
-1.09741e-10
1.19007e-09
9.50367e-10
-6.01033e-10
1.59725e-09
-2.37359e-09
6.11774e-09
-5.29359e-09
1.15902e-08
-9.33801e-09
1.77181e-08
-1.44818e-08
2.42638e-08
-2.06958e-08
3.10285e-08
-2.79463e-08
3.78487e-08
-3.61942e-08
4.45921e-08
-4.53954e-08
5.11538e-08
-5.5501e-08
5.74519e-08
-6.64584e-08
6.3424e-08
-7.82113e-08
6.90238e-08
-9.07008e-08
7.4219e-08
-1.03866e-07
7.89878e-08
-1.17645e-07
8.33176e-08
-1.31976e-07
8.72028e-08
-1.46794e-07
9.06431e-08
-1.62037e-07
9.36427e-08
-1.77643e-07
9.62084e-08
-1.93549e-07
9.83493e-08
-2.09696e-07
1.00076e-07
-2.26024e-07
1.01398e-07
-2.42474e-07
1.02329e-07
-2.58988e-07
1.02878e-07
-2.7551e-07
1.03055e-07
-2.91985e-07
1.02871e-07
-3.08358e-07
1.02335e-07
-3.24576e-07
1.01453e-07
-3.40587e-07
1.00233e-07
-3.56338e-07
9.86802e-08
-3.71778e-07
9.68008e-08
-3.86856e-07
9.45987e-08
-4.01523e-07
9.20778e-08
-4.1573e-07
8.92415e-08
-4.29426e-07
8.60932e-08
-4.42565e-07
8.26363e-08
-4.55097e-07
7.88741e-08
-4.66978e-07
7.48106e-08
-4.7816e-07
7.04505e-08
-4.88599e-07
6.57992e-08
-4.98251e-07
6.08633e-08
-5.07074e-07
5.56507e-08
-5.15027e-07
5.01705e-08
-5.2207e-07
4.44339e-08
-5.28168e-07
3.84535e-08
-5.33286e-07
3.22441e-08
-5.37391e-07
2.58225e-08
-5.40456e-07
1.92075e-08
-5.42455e-07
1.24203e-08
-5.43365e-07
5.48433e-09
-5.43169e-07
-1.57491e-09
-5.41853e-07
-8.72953e-09
-5.39409e-07
-1.59495e-08
-5.3583e-07
-2.32029e-08
-5.31119e-07
-3.04555e-08
-5.2528e-07
-3.76717e-08
-5.18326e-07
-4.48141e-08
-5.10274e-07
-5.18441e-08
-5.01147e-07
-5.87217e-08
-4.90974e-07
-6.54066e-08
-4.7979e-07
-7.18575e-08
-4.67636e-07
-7.80335e-08
-4.54559e-07
-8.38934e-08
-4.40613e-07
-8.93971e-08
-4.25857e-07
-9.45053e-08
-4.10355e-07
-9.91801e-08
-3.94176e-07
-1.03386e-07
-3.77397e-07
-1.07088e-07
-3.60096e-07
-1.10257e-07
-3.42357e-07
-1.12863e-07
-3.24267e-07
-1.14884e-07
-3.05918e-07
-1.16298e-07
-2.87401e-07
-1.17089e-07
-2.68811e-07
-1.17245e-07
-2.50246e-07
-1.1676e-07
-2.318e-07
-1.15632e-07
-2.1357e-07
-1.13864e-07
-1.95651e-07
-1.11465e-07
-1.78135e-07
-1.08452e-07
-1.61111e-07
-1.04844e-07
-1.44666e-07
-1.00668e-07
-1.28881e-07
-9.59567e-08
-1.13831e-07
-9.07501e-08
-9.95854e-08
-8.50932e-08
-8.62051e-08
-7.90377e-08
-7.37436e-08
-7.26422e-08
-6.22451e-08
-6.59718e-08
-5.1744e-08
-5.90986e-08
-4.22639e-08
-5.21023e-08
-3.38172e-08
-4.50702e-08
-2.64044e-08
-3.80981e-08
-2.00137e-08
-3.12907e-08
-1.46201e-08
-2.4763e-08
-1.01861e-08
-1.86406e-08
-6.66059e-09
-1.30617e-08
-3.97973e-09
-8.17823e-09
-2.06687e-09
-4.15765e-09
-8.3348e-10
-1.18468e-09
-1.80375e-10
5.36961e-10
7.69995e-10
-6.98241e-10
2.29549e-09
-2.73717e-09
8.15667e-09
-6.06938e-09
1.49224e-08
-1.06511e-08
2.22998e-08
-1.6439e-08
3.00518e-08
-2.33887e-08
3.79781e-08
-3.14528e-08
4.59128e-08
-4.05813e-08
5.37206e-08
-5.07206e-08
6.12932e-08
-6.18142e-08
6.85454e-08
-7.38024e-08
7.54122e-08
-8.66235e-08
8.18449e-08
-1.00214e-07
8.78091e-08
-1.14508e-07
9.32819e-08
-1.2944e-07
9.82498e-08
-1.44944e-07
1.02707e-07
-1.60953e-07
1.06652e-07
-1.77401e-07
1.10091e-07
-1.94224e-07
1.13031e-07
-2.11355e-07
1.15481e-07
-2.28732e-07
1.17453e-07
-2.46292e-07
1.18958e-07
-2.63973e-07
1.2001e-07
-2.81716e-07
1.2062e-07
-2.9946e-07
1.208e-07
-3.17148e-07
1.20559e-07
-3.34722e-07
1.19908e-07
-3.52126e-07
1.18856e-07
-3.69303e-07
1.1741e-07
-3.862e-07
1.15577e-07
-4.02761e-07
1.13362e-07
-4.18934e-07
1.10772e-07
-4.34665e-07
1.07809e-07
-4.49902e-07
1.04478e-07
-4.64593e-07
1.00784e-07
-4.78687e-07
9.67299e-08
-4.92133e-07
9.232e-08
-5.04881e-07
8.75592e-08
-5.16884e-07
8.24529e-08
-5.28092e-07
7.70078e-08
-5.38461e-07
7.12316e-08
-5.47944e-07
6.51337e-08
-5.56498e-07
5.8725e-08
-5.64083e-07
5.20185e-08
-5.70659e-07
4.50292e-08
-5.76189e-07
3.77741e-08
-5.80639e-07
3.02731e-08
-5.8398e-07
2.2548e-08
-5.86183e-07
1.46235e-08
-5.87225e-07
6.52671e-09
-5.87087e-07
-1.71262e-09
-5.85755e-07
-1.00622e-08
-5.83217e-07
-1.84873e-08
-5.79469e-07
-2.69509e-08
-5.74511e-07
-3.54135e-08
-5.68349e-07
-4.38339e-08
-5.60994e-07
-5.21688e-08
-5.52464e-07
-6.03736e-08
-5.42784e-07
-6.84023e-08
-5.31982e-07
-7.6208e-08
-5.20097e-07