/*--------------------------------*- C++ -*----------------------------------*\
| =========                 |                                                 |
| \\      /  F ield         | OpenFOAM: The Open Source CFD Toolbox           |
|  \\    /   O peration     | Version:  2512                                  |
|   \\  /    A nd           | Website:  www.openfoam.com                      |
|    \\/     M anipulation  |                                                 |
\*---------------------------------------------------------------------------*/
FoamFile
{
    version     2.0;
    format      ascii;
    arch        "LSB;label=32;scalar=64";
    class       volVectorField;
    location    "0.42";
    object      U;
}
// * * * * * * * * * * * * * * * * * * * * * * * * * * * * * * * * * * * * * //

dimensions      [0 1 -1 0 0 0 0];

internalField   nonuniform List<vector> 
10000
(
(3.37641e-06 -3.36889e-06 0)
(1.47253e-05 -7.24739e-06 0)
(3.06152e-05 -7.51907e-06 0)
(4.33146e-05 -5.63354e-06 0)
(4.85699e-05 -2.75232e-06 0)
(4.46126e-05 5.09554e-07 0)
(3.07562e-05 3.83642e-06 0)
(6.91274e-06 7.05771e-06 0)
(-2.66336e-05 1.00936e-05 0)
(-6.93906e-05 1.29025e-05 0)
(-0.000120741 1.54684e-05 0)
(-0.000180007 1.77885e-05 0)
(-0.000246487 1.98665e-05 0)
(-0.000319473 2.17138e-05 0)
(-0.000398274 2.33419e-05 0)
(-0.000482222 2.47621e-05 0)
(-0.000570674 2.59879e-05 0)
(-0.000663021 2.70333e-05 0)
(-0.000758689 2.79104e-05 0)
(-0.000857138 2.86317e-05 0)
(-0.000957857 2.92083e-05 0)
(-0.00106037 2.96496e-05 0)
(-0.00116422 2.99646e-05 0)
(-0.00126898 3.01623e-05 0)
(-0.00137426 3.02499e-05 0)
(-0.00147967 3.02333e-05 0)
(-0.00158484 3.01166e-05 0)
(-0.00168943 2.99031e-05 0)
(-0.00179308 2.95962e-05 0)
(-0.00189548 2.91982e-05 0)
(-0.00199629 2.87107e-05 0)
(-0.00209519 2.81344e-05 0)
(-0.00219186 2.74692e-05 0)
(-0.00228599 2.67152e-05 0)
(-0.00237726 2.58716e-05 0)
(-0.00246536 2.49377e-05 0)
(-0.00254996 2.39128e-05 0)
(-0.00263074 2.27962e-05 0)
(-0.00270739 2.15871e-05 0)
(-0.00277958 2.02849e-05 0)
(-0.00284701 1.88893e-05 0)
(-0.00290934 1.74011e-05 0)
(-0.00296627 1.58211e-05 0)
(-0.00301749 1.41506e-05 0)
(-0.00306271 1.2392e-05 0)
(-0.00310163 1.0548e-05 0)
(-0.00313399 8.62277e-06 0)
(-0.00315952 6.62136e-06 0)
(-0.00317798 4.54896e-06 0)
(-0.00318916 2.4122e-06 0)
(-0.00319286 2.19145e-07 0)
(-0.00318893 -2.02168e-06 0)
(-0.00317723 -4.30037e-06 0)
(-0.00315767 -6.60582e-06 0)
(-0.00313019 -8.92654e-06 0)
(-0.00309477 -1.12501e-05 0)
(-0.00305144 -1.35629e-05 0)
(-0.00300028 -1.58509e-05 0)
(-0.0029414 -1.80992e-05 0)
(-0.00287498 -2.02923e-05 0)
(-0.00280124 -2.24148e-05 0)
(-0.00272046 -2.44508e-05 0)
(-0.00263297 -2.63838e-05 0)
(-0.00253913 -2.81978e-05 0)
(-0.0024394 -2.98778e-05 0)
(-0.00233424 -3.14085e-05 0)
(-0.00222419 -3.27749e-05 0)
(-0.00210982 -3.39637e-05 0)
(-0.00199175 -3.49623e-05 0)
(-0.00187064 -3.57591e-05 0)
(-0.00174719 -3.63438e-05 0)
(-0.0016221 -3.67081e-05 0)
(-0.00149614 -3.68448e-05 0)
(-0.00137006 -3.67485e-05 0)
(-0.00124465 -3.64158e-05 0)
(-0.0011207 -3.58453e-05 0)
(-0.000998982 -3.50374e-05 0)
(-0.000880294 -3.39943e-05 0)
(-0.0007654 -3.27206e-05 0)
(-0.00065505 -3.1223e-05 0)
(-0.000549969 -2.95097e-05 0)
(-0.000450846 -2.75911e-05 0)
(-0.000358334 -2.54794e-05 0)
(-0.000273035 -2.3189e-05 0)
(-0.000195499 -2.07361e-05 0)
(-0.000126216 -1.81388e-05 0)
(-6.56031e-05 -1.54174e-05 0)
(-1.40005e-05 -1.25954e-05 0)
(2.83419e-05 -9.69919e-06 0)
(6.12783e-05 -6.75953e-06 0)
(8.47865e-05 -3.81453e-06 0)
(9.89926e-05 -9.12513e-07 0)
(0.000104208 1.88222e-06 0)
(0.000100984 4.47822e-06 0)
(9.02043e-05 6.73863e-06 0)
(7.32097e-05 8.4509e-06 0)
(5.19729e-05 9.28416e-06 0)
(2.9406e-05 8.71082e-06 0)
(1.02555e-05 5.98585e-06 0)
(1.14253e-06 1.14787e-06 0)
(7.24862e-06 -1.47262e-05 0)
(2.70915e-05 -2.70606e-05 0)
(4.97854e-05 -2.51666e-05 0)
(6.21562e-05 -1.4288e-05 0)
(5.61266e-05 1.56089e-06 0)
(2.75292e-05 1.98413e-05 0)
(-2.57611e-05 3.89928e-05 0)
(-0.00010446 5.80579e-05 0)
(-0.000208304 7.64533e-05 0)
(-0.000336397 9.38358e-05 0)
(-0.000487432 0.000110006 0)
(-0.000659852 0.000124862 0)
(-0.000851957 0.000138364 0)
(-0.00106199 0.000150514 0)
(-0.00128816 0.000161341 0)
(-0.00152873 0.000170888 0)
(-0.00178198 0.000179211 0)
(-0.00204627 0.000186371 0)
(-0.00232002 0.000192431 0)
(-0.00260174 0.000197453 0)
(-0.00288998 0.000201497 0)
(-0.00318341 0.00020462 0)
(-0.00348072 0.000206872 0)
(-0.00378071 0.000208301 0)
(-0.0040822 0.000208948 0)
(-0.00438409 0.00020885 0)
(-0.0046853 0.000208036 0)
(-0.0049848 0.00020653 0)
(-0.00528159 0.000204352 0)
(-0.0055747 0.000201519 0)
(-0.00586318 0.00019804 0)
(-0.00614607 0.000193923 0)
(-0.00642245 0.000189174 0)
(-0.00669139 0.000183794 0)
(-0.00695198 0.000177783 0)
(-0.0072033 0.00017114 0)
(-0.00744442 0.000163865 0)
(-0.00767444 0.000155956 0)
(-0.00789244 0.000147414 0)
(-0.00809751 0.000138239 0)
(-0.00828876 0.000128437 0)
(-0.0084653 0.000118013 0)
(-0.00862624 0.000106979 0)
(-0.00877074 9.5349e-05 0)
(-0.00889798 8.3142e-05 0)
(-0.00900716 7.03822e-05 0)
(-0.00909752 5.70991e-05 0)
(-0.00916838 4.33283e-05 0)
(-0.00921907 2.91106e-05 0)
(-0.00924903 1.4493e-05 0)
(-0.00925774 -4.69762e-07 0)
(-0.00924478 -1.57176e-05 0)
(-0.00920981 -3.11843e-05 0)
(-0.0091526 -4.67969e-05 0)
(-0.00907302 -6.24775e-05 0)
(-0.00897106 -7.81426e-05 0)
(-0.00884683 -9.37032e-05 0)
(-0.00870056 -0.000109066 0)
(-0.00853263 -0.000124135 0)
(-0.00834354 -0.000138811 0)
(-0.00813393 -0.000152992 0)
(-0.00790461 -0.000166574 0)
(-0.00765649 -0.000179455 0)
(-0.00739067 -0.000191534 0)
(-0.00710834 -0.000202709 0)
(-0.00681088 -0.000212886 0)
(-0.00649974 -0.000221971 0)
(-0.00617655 -0.000229878 0)
(-0.00584302 -0.000236527 0)
(-0.00550098 -0.000241846 0)
(-0.00515234 -0.000245772 0)
(-0.00479911 -0.000248249 0)
(-0.00444335 -0.000249237 0)
(-0.00408717 -0.000248701 0)
(-0.00373272 -0.000246622 0)
(-0.00338218 -0.000242993 0)
(-0.00303771 -0.000237819 0)
(-0.00270147 -0.000231118 0)
(-0.00237556 -0.000222922 0)
(-0.00206203 -0.000213278 0)
(-0.00176288 -0.000202243 0)
(-0.00147998 -0.000189891 0)
(-0.0012151 -0.000176308 0)
(-0.000969877 -0.000161595 0)
(-0.000745785 -0.000145867 0)
(-0.00054412 -0.000129255 0)
(-0.000365974 -0.000111908 0)
(-0.000212206 -9.39956e-05 0)
(-8.3406e-05 -7.5713e-05 0)
(2.01393e-05 -5.72879e-05 0)
(9.85056e-05 -3.89931e-05 0)
(0.000152196 -2.11626e-05 0)
(0.000182232 -4.21882e-06 0)
(0.000190278 1.1285e-05 0)
(0.000178816 2.46034e-05 0)
(0.00015136 3.47128e-05 0)
(0.000112659 4.0211e-05 0)
(6.89588e-05 3.91955e-05 0)
(2.93173e-05 2.93749e-05 0)
(5.94536e-06 1.02304e-05 0)
(7.5528e-06 -3.06513e-05 0)
(2.53296e-05 -4.98039e-05 0)
(3.94993e-05 -3.92883e-05 0)
(3.50531e-05 -9.48108e-06 0)
(2.47079e-06 3.20255e-05 0)
(-6.3659e-05 7.99099e-05 0)
(-0.00016635 0.000130541 0)
(-0.000306834 0.000181506 0)
(-0.00048499 0.000231212 0)
(-0.000699759 0.000278632 0)
(-0.000949435 0.000323124 0)
(-0.00123188 0.000364313 0)
(-0.00154469 0.000402003 0)
(-0.00188531 0.000436123 0)
(-0.00225112 0.000466691 0)
(-0.00263949 0.00049378 0)
(-0.00304784 0.000517504 0)
(-0.00347364 0.000537996 0)
(-0.00391446 0.000555405 0)
(-0.00436795 0.000569882 0)
(-0.00483187 0.000581576 0)
(-0.00530407 0.000590631 0)
(-0.0057825 0.000597179 0)
(-0.00626521 0.000601344 0)
(-0.00675032 0.000603235 0)
(-0.00723603 0.000602948 0)
(-0.00772061 0.000600564 0)
(-0.00820238 0.000596154 0)
(-0.00867971 0.000589772 0)
(-0.00915101 0.000581463 0)
(-0.00961472 0.000571261 0)
(-0.0100693 0.00055919 0)
(-0.0105133 0.000545267 0)
(-0.0109451 0.000529502 0)
(-0.0113632 0.0005119 0)
(-0.0117663 0.000492466 0)
(-0.0121528 0.000471202 0)
(-0.0125212 0.000448111 0)
(-0.01287 0.0004232 0)
(-0.0131979 0.000396479 0)
(-0.0135034 0.000367968 0)
(-0.0137851 0.000337691 0)
(-0.0140415 0.000305686 0)
(-0.0142715 0.000272 0)
(-0.0144736 0.000236691 0)
(-0.0146466 0.000199836 0)
(-0.0147894 0.000161523 0)
(-0.0149008 0.000121856 0)
(-0.01498 8.09568e-05 0)
(-0.0150259 3.89643e-05 0)
(-0.0150379 -3.96585e-06 0)
(-0.0150152 -4.76601e-05 0)
(-0.0149575 -9.19288e-05 0)
(-0.0148643 -0.000136566 0)
(-0.0147355 -0.000181347 0)
(-0.0145711 -0.000226038 0)
(-0.0143713 -0.000270388 0)
(-0.0141365 -0.000314135 0)
(-0.0138674 -0.000357009 0)
(-0.0135648 -0.000398729 0)
(-0.0132296 -0.000439014 0)
(-0.0128633 -0.000477576 0)
(-0.0124672 -0.000514128 0)
(-0.0120432 -0.000548388 0)
(-0.011593 -0.00058008 0)
(-0.0111189 -0.000608934 0)
(-0.0106232 -0.000634697 0)
(-0.0101084 -0.000657129 0)
(-0.00957727 -0.00067601 0)
(-0.00903259 -0.000691141 0)
(-0.0084774 -0.000702347 0)
(-0.00791484 -0.000709481 0)
(-0.00734813 -0.000712425 0)
(-0.00678059 -0.000711092 0)
(-0.00621556 -0.000705431 0)
(-0.00565645 -0.000695422 0)
(-0.00510661 -0.000681085 0)
(-0.00456941 -0.000662475 0)
(-0.00404814 -0.000639686 0)
(-0.00354598 -0.00061285 0)
(-0.00306602 -0.000582138 0)
(-0.00261118 -0.000547762 0)
(-0.00218418 -0.000509971 0)
(-0.00178755 -0.00046906 0)
(-0.00142354 -0.000425364 0)
(-0.00109413 -0.000379267 0)
(-0.00080097 -0.000331204 0)
(-0.000545313 -0.000281674 0)
(-0.000328003 -0.000231248 0)
(-0.00014939 -0.00018059 0)
(-9.25487e-06 -0.000130484 0)
(9.32782e-05 -8.18708e-05 0)
(0.000159863 -3.5908e-05 0)
(0.000193081 5.95122e-06 0)
(0.000196629 4.18581e-05 0)
(0.000175539 6.94409e-05 0)
(0.000136305 8.5689e-05 0)
(8.70327e-05 8.69031e-05 0)
(3.9144e-05 6.89889e-05 0)
(8.63978e-06 2.92884e-05 0)
(5.75666e-06 -4.35245e-05 0)
(1.46634e-05 -6.23627e-05 0)
(9.94018e-06 -3.4904e-05 0)
(-2.27424e-05 2.31001e-05 0)
(-9.29419e-05 0.000100403 0)
(-0.000206487 0.000188766 0)
(-0.000366751 0.000282272 0)
(-0.000575172 0.000376784 0)
(-0.000831689 0.000469442 0)
(-0.00113512 0.000558312 0)
(-0.00148349 0.000642126 0)
(-0.00187424 0.000720088 0)
(-0.00230446 0.000791739 0)
(-0.00277097 0.000856865 0)
(-0.00327051 0.000915425 0)
(-0.00379974 0.000967494 0)
(-0.00435534 0.00101323 0)
(-0.00493407 0.00105285 0)
(-0.00553274 0.00108658 0)
(-0.00614829 0.0011147 0)
(-0.00677773 0.00113744 0)
(-0.00741823 0.00115508 0)
(-0.00806705 0.00116783 0)
(-0.00872155 0.00117594 0)
(-0.00937921 0.00117959 0)
(-0.0100376 0.00117896 0)
(-0.0106943 0.0011742 0)
(-0.0113471 0.00116544 0)
(-0.0119938 0.0011528 0)
(-0.0126321 0.00113635 0)
(-0.01326 0.00111616 0)
(-0.0138753 0.00109229 0)
(-0.014476 0.00106476 0)
(-0.0150601 0.00103361 0)
(-0.0156254 0.000998857 0)
(-0.0161701 0.000960507 0)
(-0.016692 0.000918578 0)
(-0.0171892 0.000873084 0)
(-0.0176598 0.000824047 0)
(-0.0181017 0.000771496 0)
(-0.0185131 0.000715476 0)
(-0.0188921 0.000656047 0)
(-0.0192368 0.000593286 0)
(-0.0195454 0.000527294 0)
(-0.0198163 0.000458194 0)
(-0.0200478 0.000386138 0)
(-0.0202384 0.000311305 0)
(-0.0203866 0.000233902 0)
(-0.0204912 0.000154171 0)
(-0.020551 7.23849e-05 0)
(-0.020565 -1.11526e-05 0)
(-0.0205325 -9.61042e-05 0)
(-0.0204527 -0.000182101 0)
(-0.0203253 -0.000268742 0)
(-0.0201502 -0.000355601 0)
(-0.0199273 -0.000442221 0)
(-0.019657 -0.000528123 0)
(-0.0193398 -0.000612805 0)
(-0.0189767 -0.000695748 0)
(-0.0185688 -0.00077642 0)
(-0.0181174 -0.00085428 0)
(-0.0176244 -0.000928783 0)
(-0.0170916 -0.000999383 0)
(-0.0165214 -0.00106554 0)
(-0.0159164 -0.00112674 0)
(-0.0152794 -0.00118246 0)
(-0.0146135 -0.00123223 0)
(-0.0139221 -0.00127559 0)
(-0.0132087 -0.00131212 0)
(-0.0124771 -0.00134146 0)
(-0.0117314 -0.00136326 0)
(-0.0109756 -0.00137726 0)
(-0.0102141 -0.00138324 0)
(-0.00945112 -0.00138102 0)
(-0.00869116 -0.00137052 0)
(-0.00793868 -0.00135171 0)
(-0.00719811 -0.00132462 0)
(-0.00647388 -0.00128937 0)
(-0.0057703 -0.00124615 0)
(-0.00509157 -0.0011952 0)
(-0.00444172 -0.00113688 0)
(-0.00382459 -0.00107158 0)
(-0.00324374 -0.0009998 0)
(-0.00270247 -0.000922115 0)
(-0.00220371 -0.000839182 0)
(-0.00175001 -0.000751752 0)
(-0.00134347 -0.00066068 0)
(-0.000985712 -0.000566937 0)
(-0.000677759 -0.000471637 0)
(-0.000420008 -0.000376061 0)
(-0.000212119 -0.000281706 0)
(-5.29121e-05 -0.000190341 0)
(5.97486e-05 -0.000104092 0)
(0.000129112 -2.55463e-05 0)
(0.000159713 4.21192e-05 0)
(0.000157559 9.49902e-05 0)
(0.000130211 0.000128292 0)
(8.69084e-05 0.000136372 0)
(4.05069e-05 0.000112936 0)
(9.23921e-06 5.18079e-05 0)
(2.94744e-06 -4.90725e-05 0)
(-1.10942e-06 -5.65429e-05 0)
(-3.17783e-05 -2.2403e-06 0)
(-0.00010081 9.34078e-05 0)
(-0.000216757 0.000215795 0)
(-0.000385269 0.000353925 0)
(-0.00060961 0.000499658 0)
(-0.000891133 0.000647091 0)
(-0.00122967 0.000792012 0)
(-0.00162386 0.000931469 0)
(-0.00207148 0.00106345 0)
(-0.00256965 0.00118664 0)
(-0.00311502 0.00130023 0)
(-0.00370396 0.00140379 0)
(-0.00433264 0.00149718 0)
(-0.00499718 0.00158044 0)
(-0.00569366 0.00165375 0)
(-0.0064182 0.00171738 0)
(-0.00716699 0.00177166 0)
(-0.00793632 0.00181696 0)
(-0.0087226 0.00185365 0)
(-0.00952235 0.00188211 0)
(-0.0103322 0.00190268 0)
(-0.0111489 0.00191569 0)
(-0.0119694 0.00192146 0)
(-0.0127906 0.00192025 0)
(-0.0136095 0.00191229 0)
(-0.0144234 0.00189779 0)
(-0.0152294 0.00187691 0)
(-0.0160249 0.0018498 0)
(-0.0168071 0.00181657 0)
(-0.0175734 0.00177729 0)
(-0.0183213 0.00173204 0)
(-0.0190482 0.00168085 0)
(-0.0197516 0.00162378 0)
(-0.0204288 0.00156085 0)
(-0.0210775 0.00149209 0)
(-0.0216952 0.00141754 0)
(-0.0222794 0.00133724 0)
(-0.0228277 0.00125126 0)
(-0.0233378 0.00115968 0)
(-0.0238073 0.0010626 0)
(-0.024234 0.000960174 0)
(-0.0246157 0.000852562 0)
(-0.0249503 0.000739978 0)
(-0.0252358 0.000622676 0)
(-0.0254704 0.000500953 0)
(-0.0256524 0.000375156 0)
(-0.0257801 0.000245678 0)
(-0.0258523 0.000112964 0)
(-0.0258677 -2.24885e-05 0)
(-0.0258255 -0.000160134 0)
(-0.0257248 -0.000299377 0)
(-0.0255652 -0.000439572 0)
(-0.0253466 -0.00058003 0)
(-0.025069 -0.000720021 0)
(-0.024733 -0.000858775 0)
(-0.0243392 -0.000995491 0)
(-0.0238887 -0.00112934 0)
(-0.023383 -0.00125948 0)
(-0.0228237 -0.00138504 0)
(-0.0222132 -0.00150515 0)
(-0.0215537 -0.00161896 0)
(-0.0208481 -0.0017256 0)
(-0.0200997 -0.00182424 0)
(-0.0193117 -0.00191409 0)
(-0.0184882 -0.00199437 0)
(-0.0176331 -0.00206437 0)
(-0.0167509 -0.00212343 0)
(-0.0158461 -0.00217096 0)
(-0.0149236 -0.00220643 0)
(-0.0139884 -0.00222942 0)
(-0.0130457 -0.00223957 0)
(-0.0121009 -0.00223664 0)
(-0.0111592 -0.00222048 0)
(-0.0102262 -0.00219104 0)
(-0.00930717 -0.0021484 0)
(-0.00840751 -0.00209274 0)
(-0.00753246 -0.00202436 0)
(-0.00668709 -0.00194368 0)
(-0.0058763 -0.00185126 0)
(-0.00510471 -0.00174775 0)
(-0.00437664 -0.00163395 0)
(-0.00369605 -0.0015108 0)
(-0.00306648 -0.00137937 0)
(-0.00249098 -0.00124087 0)
(-0.00197206 -0.00109668 0)
(-0.00151164 -0.000948376 0)
(-0.00111094 -0.000797742 0)
(-0.000770395 -0.000646821 0)
(-0.000489606 -0.000497966 0)
(-0.000267191 -0.000353926 0)
(-0.000100685 -0.000217935 0)
(1.35988e-05 -9.38378e-05 0)
(8.07202e-05 1.37644e-05 0)
(0.000107269 9.93553e-05 0)
(0.000101433 0.000156355 0)
(7.31321e-05 0.000177072 0)
(3.58902e-05 0.000152746 0)
(8.52973e-06 7.32752e-05 0)
(-2.90434e-07 -4.54236e-05 0)
(-1.96305e-05 -2.78425e-05 0)
(-8.07653e-05 6.46723e-05 0)
(-0.000191672 0.000208073 0)
(-0.000359163 0.000384872 0)
(-0.000588228 0.000581637 0)
(-0.00088165 0.000788168 0)
(-0.00124041 0.000996882 0)
(-0.00166404 0.00120222 0)
(-0.00215093 0.00140019 0)
(-0.00269856 0.00158798 0)
(-0.00330372 0.00176368 0)
(-0.0039627 0.0019261 0)
(-0.00467146 0.00207455 0)
(-0.00542574 0.00220871 0)
(-0.00622117 0.00232857 0)
(-0.00705331 0.0024343 0)
(-0.00791776 0.00252622 0)
(-0.00881018 0.00260475 0)
(-0.0097263 0.00267035 0)
(-0.010662 0.00272351 0)
(-0.0116132 0.00276471 0)
(-0.012576 0.00279445 0)
(-0.0135466 0.00281315 0)
(-0.0145213 0.00282125 0)
(-0.0154966 0.00281911 0)
(-0.0164691 0.00280706 0)
(-0.0174353 0.00278538 0)
(-0.0183919 0.00275431 0)
(-0.0193357 0.00271406 0)
(-0.0202636 0.00266477 0)
(-0.0211724 0.00260658 0)
(-0.022059 0.00253958 0)
(-0.0229205 0.00246386 0)
(-0.0237537 0.00237949 0)
(-0.0245557 0.00228651 0)
(-0.0253236 0.00218499 0)
(-0.0260545 0.00207499 0)
(-0.0267454 0.0019566 0)
(-0.0273936 0.00182993 0)
(-0.0279962 0.00169509 0)
(-0.0285506 0.00155228 0)
(-0.029054 0.0014017 0)
(-0.029504 0.00124362 0)
(-0.0298982 0.00107836 0)
(-0.0302342 0.000906301 0)
(-0.0305099 0.000727889 0)
(-0.0307232 0.000543635 0)
(-0.0308725 0.000354123 0)
(-0.0309562 0.000160006 0)
(-0.0309728 -3.79882e-05 0)
(-0.0309214 -0.000239062 0)
(-0.0308011 -0.000442349 0)
(-0.0306115 -0.000646911 0)
(-0.0303524 -0.00085175 0)
(-0.030024 -0.00105581 0)
(-0.0296267 -0.00125797 0)
(-0.0291615 -0.00145709 0)
(-0.0286298 -0.00165197 0)
(-0.0280331 -0.00184138 0)
(-0.0273736 -0.00202409 0)
(-0.0266537 -0.00219886 0)
(-0.0258765 -0.00236443 0)
(-0.025045 -0.00251959 0)
(-0.0241631 -0.00266315 0)
(-0.0232348 -0.00279394 0)
(-0.0222646 -0.00291089 0)
(-0.0212571 -0.00301296 0)
(-0.0202174 -0.00309921 0)
(-0.019151 -0.0031688 0)
(-0.0180635 -0.00322099 0)
(-0.0169606 -0.00325515 0)
(-0.0158484 -0.00327079 0)
(-0.0147331 -0.00326756 0)
(-0.0136208 -0.00324525 0)
(-0.0125179 -0.00320381 0)
(-0.0114306 -0.00314335 0)
(-0.010365 -0.00306414 0)
(-0.00932735 -0.00296662 0)
(-0.0083234 -0.00285141 0)
(-0.00735883 -0.0027193 0)
(-0.00643899 -0.00257128 0)
(-0.00556886 -0.00240849 0)
(-0.00475301 -0.00223231 0)
(-0.00399551 -0.00204429 0)
(-0.0032999 -0.00184619 0)
(-0.00266905 -0.00164003 0)
(-0.00210516 -0.00142808 0)
(-0.00160964 -0.0012129 0)
(-0.00118305 -0.000997395 0)
(-0.000824955 -0.000784902 0)
(-0.000533893 -0.000579245 0)
(-0.000307218 -0.000384857 0)
(-0.000141003 -0.000206914 0)
(-2.99075e-05 -5.14828e-05 0)
(3.29504e-05 7.4298e-05 0)
(5.6063e-05 0.000162045 0)
(4.96742e-05 0.000202009 0)
(2.7314e-05 0.00018294 0)
(7.06375e-06 9.10987e-05 0)
(-3.66986e-06 -3.16846e-05 0)
(-3.9478e-05 2.63988e-05 0)
(-0.000133757 0.00016971 0)
(-0.000290093 0.000371618 0)
(-0.000513061 0.000612354 0)
(-0.000806637 0.000876425 0)
(-0.00117282 0.00115183 0)
(-0.00161196 0.00142947 0)
(-0.00212314 0.00170252 0)
(-0.00270435 0.00196596 0)
(-0.0033527 0.00221619 0)
(-0.00406466 0.00245072 0)
(-0.00483615 0.00266791 0)
(-0.00566276 0.00286677 0)
(-0.00653983 0.00304681 0)
(-0.00746257 0.00320791 0)
(-0.00842611 0.00335024 0)
(-0.00942559 0.00347414 0)
(-0.0104562 0.00358008 0)
(-0.0115132 0.00366863 0)
(-0.0125919 0.00374039 0)
(-0.0136878 0.00379596 0)
(-0.0147966 0.00383595 0)
(-0.0159139 0.00386092 0)
(-0.0170355 0.0038714 0)
(-0.0181574 0.00386787 0)
(-0.0192757 0.00385076 0)
(-0.0203865 0.00382044 0)
(-0.021486 0.00377722 0)
(-0.0225705 0.00372137 0)
(-0.0236364 0.0036531 0)
(-0.0246801 0.0035726 0)
(-0.0256982 0.00347999 0)
(-0.0266869 0.00337541 0)
(-0.0276431 0.00325895 0)
(-0.0285631 0.0031307 0)
(-0.0294437 0.00299075 0)
(-0.0302815 0.00283922 0)
(-0.0310733 0.00267624 0)
(-0.0318157 0.00250195 0)
(-0.0325057 0.00231657 0)
(-0.0331402 0.00212035 0)
(-0.0337161 0.0019136 0)
(-0.0342307 0.00169669 0)
(-0.0346811 0.00147008 0)
(-0.0350648 0.00123431 0)
(-0.0353793 0.000989981 0)
(-0.0356225 0.000737816 0)
(-0.0357924 0.000478612 0)
(-0.0358871 0.000213266 0)
(-0.0359053 -5.72271e-05 0)
(-0.0358457 -0.000331781 0)
(-0.0357075 -0.000609214 0)
(-0.0354902 -0.000888255 0)
(-0.0351936 -0.00116755 0)
(-0.0348179 -0.00144567 0)
(-0.0343638 -0.00172111 0)
(-0.0338323 -0.00199232 0)
(-0.0332249 -0.00225768 0)
(-0.0325436 -0.00251555 0)
(-0.0317907 -0.00276427 0)
(-0.030969 -0.00300215 0)
(-0.0300818 -0.00322754 0)
(-0.0291329 -0.00343879 0)
(-0.0281264 -0.00363429 0)
(-0.0270669 -0.00381252 0)
(-0.0259593 -0.00397199 0)
(-0.0248091 -0.00411134 0)
(-0.0236219 -0.0042293 0)
(-0.0224038 -0.00432475 0)
(-0.0211611 -0.0043967 0)
(-0.0199004 -0.00444431 0)
(-0.0186284 -0.00446693 0)
(-0.017352 -0.00446409 0)
(-0.0160783 -0.00443551 0)
(-0.0148142 -0.00438114 0)
(-0.0135668 -0.00430112 0)
(-0.0123431 -0.00419582 0)
(-0.0111498 -0.00406586 0)
(-0.00999366 -0.00391208 0)
(-0.00888091 -0.00373555 0)
(-0.00781757 -0.0035376 0)
(-0.00680925 -0.00331982 0)
(-0.00586108 -0.00308405 0)
(-0.00497764 -0.00283239 0)
(-0.00416288 -0.00256726 0)
(-0.00342006 -0.00229135 0)
(-0.00275168 -0.00200772 0)
(-0.00215936 -0.0017198 0)
(-0.00164378 -0.00143147 0)
(-0.00120461 -0.00114709 0)
(-0.000840371 -0.000871636 0)
(-0.000548386 -0.000610806 0)
(-0.000324649 -0.000371133 0)
(-0.000163736 -0.000160164 0)
(-5.86988e-05 1.3359e-05 0)
(-9.94529e-07 0.00013929 0)
(1.96422e-05 0.0002059 0)
(1.62271e-05 0.000199624 0)
(5.18221e-06 0.00010367 0)
(-7.0369e-06 -7.501e-06 0)
(-5.98121e-05 0.000107615 0)
(-0.000188661 0.000315202 0)
(-0.000392515 0.000586958 0)
(-0.000673448 0.000901407 0)
(-0.00103417 0.00124142 0)
(-0.00147565 0.00159351 0)
(-0.00199744 0.00194723 0)
(-0.00259796 0.00229464 0)
(-0.00327471 0.00262978 0)
(-0.00402436 0.00294832 0)
(-0.00484297 0.00324716 0)
(-0.00572611 0.00352424 0)
(-0.006669 0.00377827 0)
(-0.0076666 0.00400855 0)
(-0.00871373 0.00421487 0)
(-0.00980515 0.00439735 0)
(-0.0109356 0.00455633 0)
(-0.0120998 0.00469236 0)
(-0.0132926 0.00480608 0)
(-0.014509 0.00489819 0)
(-0.0157439 0.00496941 0)
(-0.0169926 0.00502048 0)
(-0.0182503 0.00505207 0)
(-0.0195124 0.00506482 0)
(-0.0207743 0.00505934 0)
(-0.0220318 0.00503614 0)
(-0.0232805 0.00499568 0)
(-0.0245162 0.00493836 0)
(-0.0257348 0.00486452 0)
(-0.0269321 0.00477443 0)
(-0.0281043 0.00466832 0)
(-0.0292472 0.00454639 0)
(-0.0303572 0.0044088 0)
(-0.0314302 0.00425568 0)
(-0.0324624 0.00408717 0)
(-0.0334502 0.00390342 0)
(-0.0343897 0.00370457 0)
(-0.0352773 0.00349082 0)
(-0.0361094 0.00326239 0)
(-0.0368826 0.00301957 0)
(-0.0375933 0.0027627 0)
(-0.0382383 0.0024922 0)
(-0.0388144 0.0022086 0)
(-0.0393186 0.00191248 0)
(-0.039748 0.00160456 0)
(-0.0401 0.00128566 0)
(-0.0403721 0.000956706 0)
(-0.0405621 0.000618749 0)
(-0.0406681 0.000272961 0)
(-0.0406886 -7.93637e-05 0)
(-0.0406222 -0.000436813 0)
(-0.040468 -0.000797857 0)
(-0.0402255 -0.00116085 0)
(-0.0398944 -0.00152404 0)
(-0.0394752 -0.00188559 0)
(-0.0389684 -0.00224356 0)
(-0.0383754 -0.00259595 0)
(-0.0376977 -0.00294068 0)
(-0.0369375 -0.00327564 0)
(-0.0360974 -0.0035987 0)
(-0.0351806 -0.0039077 0)
(-0.0341906 -0.00420052 0)
(-0.0331316 -0.00447503 0)
(-0.0320082 -0.0047292 0)
(-0.0308254 -0.00496105 0)
(-0.0295887 -0.00516869 0)
(-0.0283041 -0.00535038 0)
(-0.0269777 -0.0055045 0)
(-0.0256163 -0.00562961 0)
(-0.0242267 -0.00572443 0)
(-0.0228163 -0.0057879 0)
(-0.0213925 -0.0058192 0)
(-0.0199628 -0.00581771 0)
(-0.018535 -0.0057831 0)
(-0.0171168 -0.00571529 0)
(-0.0157159 -0.00561447 0)
(-0.0143401 -0.00548114 0)
(-0.0129968 -0.00531607 0)
(-0.0116932 -0.00512037 0)
(-0.0104365 -0.00489542 0)
(-0.00923311 -0.00464295 0)
(-0.00808933 -0.004365 0)
(-0.00701079 -0.00406394 0)
(-0.00600255 -0.00374251 0)
(-0.005069 -0.00340378 0)
(-0.00421377 -0.00305125 0)
(-0.00343967 -0.0026888 0)
(-0.00274856 -0.0023208 0)
(-0.00214135 -0.00195214 0)
(-0.00161783 -0.0015883 0)
(-0.00117663 -0.00123545 0)
(-0.000815141 -0.000900564 0)
(-0.00052943 -0.000591544 0)
(-0.000314145 -0.000317402 0)
(-0.000162454 -8.84396e-05 0)
(-6.59724e-05 8.35163e-05 0)
(-1.46511e-05 0.000184909 0)
(3.63736e-06 0.000200146 0)
(3.09582e-06 0.000110018 0)
(-1.03254e-05 2.71677e-05 0)
(-8.01462e-05 0.000216388 0)
(-0.000244136 0.000502348 0)
(-0.000496554 0.000855765 0)
(-0.000836848 0.00125399 0)
(-0.0012663 0.00167867 0)
(-0.00178469 0.00211511 0)
(-0.00239059 0.0025518 0)
(-0.00308165 0.00297981 0)
(-0.00385474 0.00339238 0)
(-0.00470602 0.00378449 0)
(-0.0056311 0.00415251 0)
(-0.00662515 0.00449398 0)
(-0.00768299 0.00480729 0)
(-0.00879923 0.00509158 0)
(-0.00996833 0.0053465 0)
(-0.0111847 0.00557212 0)
(-0.0124426 0.00576881 0)
(-0.0137366 0.00593715 0)
(-0.0150609 0.00607785 0)
(-0.0164103 0.00619173 0)
(-0.0177794 0.00627961 0)
(-0.0191628 0.00634234 0)
(-0.0205555 0.0063807 0)
(-0.0219525 0.00639548 0)
(-0.0233489 0.00638735 0)
(-0.0247398 0.00635696 0)
(-0.0261206 0.00630484 0)
(-0.0274867 0.00623149 0)
(-0.0288335 0.00613731 0)
(-0.0301567 0.00602263 0)
(-0.0314516 0.00588776 0)
(-0.0327141 0.00573293 0)
(-0.0339399 0.00555836 0)
(-0.0351247 0.00536422 0)
(-0.0362642 0.00515072 0)
(-0.0373545 0.00491804 0)
(-0.0383914 0.00466639 0)
(-0.0393708 0.00439603 0)
(-0.0402889 0.00410727 0)
(-0.0411419 0.00380048 0)
(-0.0419259 0.00347612 0)
(-0.0426374 0.00313474 0)
(-0.0432729 0.00277701 0)
(-0.0438291 0.00240369 0)
(-0.044303 0.00201569 0)
(-0.0446916 0.00161405 0)
(-0.0449922 0.00119994 0)
(-0.0452026 0.0007747 0)
(-0.0453206 0.000339794 0)
(-0.0453445 -0.000103152 0)
(-0.045273 -0.000552368 0)
(-0.045105 -0.00100594 0)
(-0.0448399 -0.00146182 0)
(-0.0444777 -0.00191782 0)
(-0.0440186 -0.00237164 0)
(-0.0434633 -0.00282089 0)
(-0.0428133 -0.00326306 0)
(-0.0420703 -0.00369559 0)
(-0.0412366 -0.00411585 0)
(-0.0403151 -0.0045212 0)
(-0.0393091 -0.00490897 0)
(-0.0382227 -0.0052765 0)
(-0.0370602 -0.0056212 0)
(-0.0358267 -0.00594052 0)
(-0.0345276 -0.00623202 0)
(-0.0331688 -0.00649338 0)
(-0.0317567 -0.00672241 0)
(-0.0302982 -0.00691713 0)
(-0.0288004 -0.00707573 0)
(-0.027271 -0.00719666 0)
(-0.0257176 -0.00727859 0)
(-0.0241484 -0.0073205 0)
(-0.0225716 -0.00732164 0)
(-0.0209956 -0.00728158 0)
(-0.0194287 -0.00720024 0)
(-0.0178794 -0.00707785 0)
(-0.016356 -0.00691504 0)
(-0.0148667 -0.00671277 0)
(-0.0134193 -0.00647241 0)
(-0.0120215 -0.00619569 0)
(-0.0106805 -0.00588476 0)
(-0.00940295 -0.00554216 0)
(-0.0081951 -0.00517085 0)
(-0.00706249 -0.0047742 0)
(-0.00600993 -0.00435605 0)
(-0.00504145 -0.0039207 0)
(-0.0041602 -0.00347294 0)
(-0.00336834 -0.00301813 0)
(-0.00266703 -0.0025622 0)
(-0.00205627 -0.0021118 0)
(-0.0015349 -0.00167431 0)
(-0.00110048 -0.00125799 0)
(-0.000749246 -0.000872109 0)
(-0.000476063 -0.000527114 0)
(-0.00027436 -0.000234798 0)
(-0.000136073 -8.55417e-06 0)
(-5.15461e-05 0.000136423 0)
(-9.77648e-06 0.000182823 0)
(9.30883e-07 0.00010961 0)
(-1.35084e-05 7.21893e-05 0)
(-0.000100204 0.000352795 0)
(-0.000299352 0.000731574 0)
(-0.000600644 0.00117881 0)
(-0.00100088 0.00167113 0)
(-0.00149983 0.00218931 0)
(-0.00209597 0.00271779 0)
(-0.00278678 0.00324419 0)
(-0.00356903 0.0037588 0)
(-0.00443886 0.00425417 0)
(-0.00539186 0.0047247 0)
(-0.0064231 0.00516631 0)
(-0.00752732 0.00557615 0)
(-0.00869894 0.00595237 0)
(-0.00993219 0.00629392 0)
(-0.0112212 0.00660033 0)
(-0.0125599 0.00687165 0)
(-0.0139425 0.00710823 0)
(-0.0153628 0.00731072 0)
(-0.0168152 0.00747989 0)
(-0.0182937 0.00761664 0)
(-0.0197926 0.00772191 0)
(-0.0213064 0.00779665 0)
(-0.0228295 0.00784179 0)
(-0.0243566 0.00785818 0)
(-0.0258825 0.00784665 0)
(-0.027402 0.0078079 0)
(-0.0289099 0.00774259 0)
(-0.0304015 0.00765128 0)
(-0.0318716 0.00753445 0)
(-0.0333156 0.00739252 0)
(-0.0347287 0.00722583 0)
(-0.0361061 0.00703468 0)
(-0.0374433 0.00681933 0)
(-0.0387355 0.00658004 0)
(-0.0399784 0.00631703 0)
(-0.0411674 0.00603056 0)
(-0.0422981 0.00572091 0)
(-0.0433662 0.00538841 0)
(-0.0443674 0.00503347 0)
(-0.0452976 0.00465655 0)
(-0.0461527 0.00425824 0)
(-0.0469289 0.00383924 0)
(-0.0476224 0.00340036 0)
(-0.0482297 0.00294257 0)
(-0.0487474 0.00246699 0)
(-0.0491724 0.0019749 0)
(-0.0495019 0.00146775 0)
(-0.0497333 0.000947159 0)
(-0.0498645 0.000414932 0)
(-0.0498935 -0.000126952 0)
(-0.0498189 -0.000676337 0)
(-0.0496396 -0.00123089 0)
(-0.0493549 -0.00178813 0)
(-0.0489648 -0.00234541 0)
(-0.0484694 -0.00289994 0)
(-0.0478698 -0.00344881 0)
(-0.0471672 -0.003989 0)
(-0.0463636 -0.0045174 0)
(-0.0454615 -0.00503085 0)
(-0.0444638 -0.00552615 0)
(-0.0433743 -0.00600007 0)
(-0.0421971 -0.00644942 0)
(-0.040937 -0.00687105 0)
(-0.0395993 -0.00726189 0)
(-0.0381898 -0.007619 0)
(-0.0367149 -0.00793957 0)
(-0.0351815 -0.00822097 0)
(-0.0335967 -0.00846079 0)
(-0.0319684 -0.00865686 0)
(-0.0303046 -0.00880729 0)
(-0.0286137 -0.0089105 0)
(-0.0269042 -0.00896522 0)
(-0.0251852 -0.00897057 0)
(-0.0234655 -0.00892601 0)
(-0.0217541 -0.00883144 0)
(-0.0200601 -0.00868715 0)
(-0.0183925 -0.00849388 0)
(-0.0167599 -0.00825281 0)
(-0.015171 -0.00796558 0)
(-0.013634 -0.0076343 0)
(-0.0121566 -0.00726154 0)
(-0.010746 -0.00685039 0)
(-0.00940916 -0.00640442 0)
(-0.00815191 -0.00592769 0)
(-0.0069796 -0.00542483 0)
(-0.00589667 -0.00490099 0)
(-0.00490662 -0.00436191 0)
(-0.004012 -0.00381397 0)
(-0.00321424 -0.00326421 0)
(-0.00251365 -0.00272042 0)
(-0.00190933 -0.00219123 0)
(-0.00139912 -0.0016862 0)
(-0.000979521 -0.00121594 0)
(-0.000645717 -0.000792268 0)
(-0.000391515 -0.000428409 0)
(-0.000209287 -0.000139192 0)
(-8.98889e-05 5.87419e-05 0)
(-2.35694e-05 0.000146664 0)
(-1.23889e-06 0.000102194 0)
(-1.65746e-05 0.000127343 0)
(-0.000119837 0.000516576 0)
(-0.000353805 0.00100278 0)
(-0.000703775 0.00155622 0)
(-0.00116395 0.00215315 0)
(-0.00173254 0.00277382 0)
(-0.00240668 0.00340206 0)
(-0.00318264 0.00402485 0)
(-0.00405626 0.0046319 0)
(-0.00502287 0.00521523 0)
(-0.00607739 0.00576874 0)
(-0.00721434 0.006288 0)
(-0.00842796 0.00676983 0)
(-0.00971225 0.00721218 0)
(-0.011061 0.00761384 0)
(-0.0124681 0.00797425 0)
(-0.0139271 0.00829343 0)
(-0.0154317 0.00857175 0)
(-0.0169757 0.00880988 0)
(-0.0185529 0.00900868 0)
(-0.020157 0.00916915 0)
(-0.0217822 0.00929232 0)
(-0.0234226 0.00937926 0)
(-0.0250722 0.00943099 0)
(-0.0267254 0.0094485 0)
(-0.0283766 0.00943269 0)
(-0.0300204 0.0093844 0)
(-0.0316513 0.00930435 0)
(-0.033264 0.00919319 0)
(-0.0348534 0.00905148 0)
(-0.0364142 0.0088797 0)
(-0.0379414 0.00867826 0)
(-0.0394299 0.00844752 0)
(-0.0408748 0.0081878 0)
(-0.0422711 0.0078994 0)
(-0.0436141 0.00758261 0)
(-0.0448988 0.00723775 0)
(-0.0461206 0.00686519 0)
(-0.0472749 0.00646533 0)
(-0.0483571 0.00603867 0)
(-0.0493627 0.0055858 0)
(-0.0502875 0.00510744 0)
(-0.0511272 0.00460443 0)
(-0.051878 0.00407779 0)
(-0.052536 0.00352867 0)
(-0.0530976 0.00295842 0)
(-0.0535595 0.00236859 0)
(-0.0539187 0.00176091 0)
(-0.0541724 0.00113732 0)
(-0.0543184 0.000499988 0)
(-0.0543545 -0.000148739 0)
(-0.0542792 -0.000806289 0)
(-0.0540914 -0.0014699 0)
(-0.0537902 -0.0021366 0)
(-0.0533757 -0.00280326 0)
(-0.0528479 -0.00346658 0)
(-0.052208 -0.0041231 0)
(-0.0514572 -0.00476924 0)
(-0.0505976 -0.00540134 0)
(-0.0496317 -0.00601564 0)
(-0.0485629 -0.00660835 0)
(-0.0473949 -0.00717567 0)
(-0.0461321 -0.0077138 0)
(-0.0447796 -0.00821903 0)