/*--------------------------------*- C++ -*----------------------------------*\
| =========                 |                                                 |
| \\      /  F ield         | OpenFOAM: The Open Source CFD Toolbox           |
|  \\    /   O peration     | Version:  2512                                  |
|   \\  /    A nd           | Website:  www.openfoam.com                      |
|    \\/     M anipulation  |                                                 |
\*---------------------------------------------------------------------------*/
FoamFile
{
    version     2.0;
    format      ascii;
    arch        "LSB;label=32;scalar=64";
    class       volVectorField;
    location    "0.08";
    object      U;
}
// * * * * * * * * * * * * * * * * * * * * * * * * * * * * * * * * * * * * * //

dimensions      [0 1 -1 0 0 0 0];

internalField   nonuniform List<vector> 
10000
(
(2.06161e-06 -4.73741e-06 0)
(1.16445e-05 -6.6834e-06 0)
(1.85353e-05 -4.01233e-06 0)
(1.99739e-05 -1.0068e-06 0)
(1.20097e-05 2.17321e-06 0)
(-4.60028e-06 5.17408e-06 0)
(-2.94761e-05 7.87754e-06 0)
(-6.19603e-05 1.02506e-05 0)
(-0.00010125 1.23028e-05 0)
(-0.00014652 1.40616e-05 0)
(-0.000196972 1.55487e-05 0)
(-0.000251827 1.67823e-05 0)
(-0.000310359 1.77821e-05 0)
(-0.000371903 1.85715e-05 0)
(-0.000435851 1.91791e-05 0)
(-0.000501654 1.96344e-05 0)
(-0.000568819 1.99567e-05 0)
(-0.000636904 2.01536e-05 0)
(-0.000705514 2.02322e-05 0)
(-0.000774298 2.02093e-05 0)
(-0.00084295 2.01076e-05 0)
(-0.0009112 1.99401e-05 0)
(-0.000978811 1.97109e-05 0)
(-0.00104557 1.94224e-05 0)
(-0.00111129 1.90803e-05 0)
(-0.00117581 1.86941e-05 0)
(-0.00123898 1.82739e-05 0)
(-0.00130068 1.78238e-05 0)
(-0.00136078 1.73427e-05 0)
(-0.00141917 1.68305e-05 0)
(-0.00147576 1.62896e-05 0)
(-0.00153046 1.57243e-05 0)
(-0.00158318 1.51381e-05 0)
(-0.00163384 1.4532e-05 0)
(-0.00168237 1.39044e-05 0)
(-0.00172868 1.32539e-05 0)
(-0.00177271 1.25815e-05 0)
(-0.00181439 1.18898e-05 0)
(-0.00185366 1.11803e-05 0)
(-0.00189044 1.04532e-05 0)
(-0.00192467 9.70802e-06 0)
(-0.0019563 8.94426e-06 0)
(-0.00198525 8.1617e-06 0)
(-0.00201148 7.36082e-06 0)
(-0.00203491 6.54312e-06 0)
(-0.00205551 5.70997e-06 0)
(-0.00207321 4.86166e-06 0)
(-0.00208796 3.99776e-06 0)
(-0.00209972 3.11803e-06 0)
(-0.00210843 2.22335e-06 0)
(-0.00211406 1.3154e-06 0)
(-0.00211656 3.95641e-07 0)
(-0.00211589 -5.35043e-07 0)
(-0.00211203 -1.47612e-06 0)
(-0.00210494 -2.42686e-06 0)
(-0.0020946 -3.38577e-06 0)
(-0.00208098 -4.35094e-06 0)
(-0.00206408 -5.3206e-06 0)
(-0.00204388 -6.29314e-06 0)
(-0.00202039 -7.26701e-06 0)
(-0.00199359 -8.24039e-06 0)
(-0.0019635 -9.21098e-06 0)
(-0.00193015 -1.01763e-05 0)
(-0.00189355 -1.1134e-05 0)
(-0.00185373 -1.20815e-05 0)
(-0.00181075 -1.30164e-05 0)
(-0.00176464 -1.3936e-05 0)
(-0.00171548 -1.48367e-05 0)
(-0.00166333 -1.57149e-05 0)
(-0.00160829 -1.65666e-05 0)
(-0.00155045 -1.73874e-05 0)
(-0.00148993 -1.81729e-05 0)
(-0.00142687 -1.89179e-05 0)
(-0.00136141 -1.96171e-05 0)
(-0.00129372 -2.0264e-05 0)
(-0.001224 -2.08518e-05 0)
(-0.00115247 -2.13728e-05 0)
(-0.00107936 -2.18186e-05 0)
(-0.00100495 -2.21799e-05 0)
(-0.000929548 -2.24469e-05 0)
(-0.000853483 -2.26089e-05 0)
(-0.000777132 -2.26543e-05 0)
(-0.000700906 -2.25699e-05 0)
(-0.000625259 -2.23418e-05 0)
(-0.000550689 -2.19551e-05 0)
(-0.000477739 -2.1394e-05 0)
(-0.000407001 -2.06418e-05 0)
(-0.000339113 -1.96805e-05 0)
(-0.000274764 -1.84911e-05 0)
(-0.00021469 -1.70539e-05 0)
(-0.000159667 -1.53496e-05 0)
(-0.00011051 -1.33601e-05 0)
(-6.80536e-05 -1.10696e-05 0)
(-3.31292e-05 -8.46926e-06 0)
(-6.51035e-06 -5.57116e-06 0)
(1.11695e-05 -2.43788e-06 0)
(1.95885e-05 7.66277e-07 0)
(1.91171e-05 3.63227e-06 0)
(1.19995e-05 5.22754e-06 0)
(3.61603e-06 3.61569e-06 0)
(3.12967e-06 -1.0891e-05 0)
(1.1505e-05 -1.55091e-05 0)
(1.35959e-05 -5.34214e-06 0)
(-2.0564e-07 9.20295e-06 0)
(-3.39003e-05 2.54922e-05 0)
(-8.83555e-05 4.17427e-05 0)
(-0.000163266 5.70737e-05 0)
(-0.000257449 7.10649e-05 0)
(-0.000369289 8.35457e-05 0)
(-0.000496946 9.44717e-05 0)
(-0.000638491 0.000103884 0)
(-0.000792018 0.000111855 0)
(-0.000955685 0.000118475 0)
(-0.00112776 0.000123844 0)
(-0.00130663 0.000128072 0)
(-0.00149082 0.000131278 0)
(-0.00167899 0.000133568 0)
(-0.0018699 0.000135036 0)
(-0.00206247 0.000135765 0)
(-0.0022557 0.000135838 0)
(-0.00244873 0.000135335 0)
(-0.00264078 0.00013433 0)
(-0.00283116 0.00013288 0)
(-0.00301925 0.000131033 0)
(-0.00320452 0.000128834 0)
(-0.00338647 0.000126322 0)
(-0.00356468 0.000123534 0)
(-0.00373875 0.000120499 0)
(-0.00390835 0.000117239 0)
(-0.00407315 0.000113774 0)
(-0.00423285 0.000110117 0)
(-0.00438718 0.000106282 0)
(-0.00453591 0.00010228 0)
(-0.00467878 9.81227e-05 0)
(-0.00481558 9.38165e-05 0)
(-0.00494608 8.93654e-05 0)
(-0.00507009 8.47732e-05 0)
(-0.00518741 8.00449e-05 0)
(-0.00529784 7.51854e-05 0)
(-0.0054012 7.01992e-05 0)
(-0.00549732 6.50899e-05 0)
(-0.00558601 5.98597e-05 0)
(-0.0056671 5.45104e-05 0)
(-0.00574044 4.90449e-05 0)
(-0.00580587 4.34676e-05 0)
(-0.00586323 3.77841e-05 0)
(-0.00591237 3.19986e-05 0)
(-0.00595316 2.61149e-05 0)
(-0.00598546 2.01368e-05 0)
(-0.00600916 1.40693e-05 0)
(-0.00602412 7.91894e-06 0)
(-0.00603025 1.69298e-06 0)
(-0.00602745 -4.60128e-06 0)
(-0.00601563 -1.09562e-05 0)
(-0.00599472 -1.73638e-05 0)
(-0.00596465 -2.38154e-05 0)
(-0.00592537 -3.0301e-05 0)
(-0.00587686 -3.68099e-05 0)
(-0.00581909 -4.33308e-05 0)
(-0.00575206 -4.98513e-05 0)
(-0.00567578 -5.63583e-05 0)
(-0.0055903 -6.28379e-05 0)
(-0.00549566 -6.92749e-05 0)
(-0.00539195 -7.56535e-05 0)
(-0.00527926 -8.19567e-05 0)
(-0.00515773 -8.81658e-05 0)
(-0.0050275 -9.42607e-05 0)
(-0.00488877 -0.000100219 0)
(-0.00474175 -0.000106016 0)
(-0.00458669 -0.000111627 0)
(-0.00442388 -0.000117021 0)
(-0.00425367 -0.000122169 0)
(-0.00407642 -0.000127036 0)
(-0.00389259 -0.000131583 0)
(-0.00370265 -0.00013577 0)
(-0.00350715 -0.000139549 0)
(-0.00330672 -0.000142872 0)
(-0.00310204 -0.000145685 0)
(-0.00289388 -0.000147927 0)
(-0.00268309 -0.000149536 0)
(-0.00247062 -0.000150443 0)
(-0.00225751 -0.000150574 0)
(-0.00204491 -0.000149851 0)
(-0.00183406 -0.000148191 0)
(-0.00162633 -0.000145506 0)
(-0.0014232 -0.000141706 0)
(-0.00122626 -0.0001367 0)
(-0.00103723 -0.000130396 0)
(-0.000857895 -0.000122706 0)
(-0.000690178 -0.000113548 0)
(-0.000536045 -0.000102853 0)
(-0.000397502 -9.05809e-05 0)
(-0.000276527 -7.67344e-05 0)
(-0.000174977 -6.13962e-05 0)
(-9.44323e-05 -4.47938e-05 0)
(-3.59545e-05 -2.74239e-05 0)
(2.83404e-07 -1.02614e-05 0)
(1.56365e-05 4.83591e-06 0)
(1.44158e-05 1.4406e-05 0)
(5.22712e-06 1.19837e-05 0)
(2.82601e-06 -1.73389e-05 0)
(3.71632e-06 -1.55832e-05 0)
(-1.15199e-05 9.60142e-06 0)
(-5.03499e-05 4.60572e-05 0)
(-0.00011737 8.71377e-05 0)
(-0.000214174 0.00012887 0)
(-0.000340535 0.000168979 0)
(-0.000495108 0.000206184 0)
(-0.000675825 0.000239821 0)
(-0.000880207 0.000269626 0)
(-0.00110559 0.000295556 0)
(-0.00134927 0.000317714 0)
(-0.00160855 0.000336283 0)
(-0.00188089 0.000351491 0)
(-0.00216387 0.000363591 0)
(-0.00245524 0.000372853 0)
(-0.00275294 0.000379546 0)
(-0.00305508 0.000383922 0)
(-0.00335996 0.000386217 0)
(-0.00366602 0.000386654 0)
(-0.00397189 0.000385439 0)
(-0.00427632 0.000382759 0)
(-0.00457822 0.000378779 0)
(-0.0048766 0.000373647 0)
(-0.00517057 0.00036749 0)
(-0.00545934 0.000360419 0)
(-0.00574223 0.00035253 0)
(-0.00601859 0.000343904 0)
(-0.00628785 0.000334612 0)
(-0.00654948 0.000324713 0)
(-0.00680302 0.000314254 0)
(-0.00704801 0.000303272 0)
(-0.00728405 0.000291803 0)
(-0.00751075 0.000279873 0)
(-0.00772775 0.000267507 0)
(-0.0079347 0.000254722 0)
(-0.00813127 0.000241535 0)
(-0.00831715 0.000227958 0)
(-0.00849203 0.000214003 0)
(-0.00865562 0.000199684 0)
(-0.00880762 0.000185011 0)
(-0.00894777 0.000169994 0)
(-0.0090758 0.000154644 0)
(-0.00919145 0.00013897 0)
(-0.00929448 0.000122982 0)
(-0.00938464 0.000106695 0)
(-0.00946171 9.01217e-05 0)
(-0.00952548 7.32751e-05 0)
(-0.00957573 5.617e-05 0)
(-0.00961229 3.88222e-05 0)
(-0.00963497 2.1249e-05 0)
(-0.00964361 3.46992e-06 0)
(-0.00963807 -1.44938e-05 0)
(-0.00961821 -3.26196e-05 0)
(-0.00958393 -5.0883e-05 0)
(-0.00953515 -6.92587e-05 0)
(-0.00947178 -8.77189e-05 0)
(-0.00939379 -0.000106233 0)
(-0.00930116 -0.00012477 0)
(-0.00919389 -0.000143294 0)
(-0.00907202 -0.000161767 0)
(-0.00893561 -0.000180151 0)
(-0.00878476 -0.000198403 0)
(-0.0086196 -0.000216477 0)
(-0.00844031 -0.000234323 0)
(-0.00824709 -0.000251889 0)
(-0.00804019 -0.000269117 0)
(-0.00781993 -0.000285944 0)
(-0.00758665 -0.0003023 0)
(-0.00734077 -0.000318112 0)
(-0.00708276 -0.000333297 0)
(-0.00681315 -0.000347766 0)
(-0.00653257 -0.000361421 0)
(-0.00624171 -0.000374155 0)
(-0.00594135 -0.000385849 0)
(-0.00563236 -0.000396376 0)
(-0.00531574 -0.000405596 0)
(-0.00499256 -0.000413357 0)
(-0.00466406 -0.000419496 0)
(-0.00433157 -0.000423835 0)
(-0.00399658 -0.000426187 0)
(-0.00366072 -0.00042635 0)
(-0.00332578 -0.000424114 0)
(-0.00299369 -0.000419256 0)
(-0.00266655 -0.000411548 0)
(-0.00234665 -0.000400759 0)
(-0.0020364 -0.00038666 0)
(-0.00173838 -0.000369029 0)
(-0.0014553 -0.000347664 0)
(-0.00118996 -0.000322398 0)
(-0.000945249 -0.00029312 0)
(-0.000724016 -0.000259812 0)
(-0.000529016 -0.000222606 0)
(-0.000362746 -0.000181874 0)
(-0.000227232 -0.000138378 0)
(-0.000123714 -9.35185e-05 0)
(-5.22075e-05 -4.97378e-05 0)
(-1.08702e-05 -1.11157e-05 0)
(4.96457e-06 1.56653e-05 0)
(3.6552e-06 1.91142e-05 0)
(4.92582e-07 -1.68059e-05 0)
(-9.94708e-06 -4.91034e-07 0)
(-4.73342e-05 4.88376e-05 0)
(-0.000116693 0.00011539 0)
(-0.00022166 0.000189465 0)
(-0.000363705 0.000264971 0)
(-0.00054252 0.000338046 0)
(-0.000756542 0.000406371 0)
(-0.00100338 0.000468643 0)
(-0.00128011 0.000524219 0)
(-0.00158356 0.000572888 0)
(-0.00191042 0.000614729 0)
(-0.00225742 0.000649996 0)
(-0.00262135 0.000679049 0)
(-0.00299917 0.000702311 0)
(-0.00338802 0.000720234 0)
(-0.00378522 0.00073328 0)
(-0.00418835 0.000741906 0)
(-0.00459517 0.000746551 0)
(-0.00500365 0.000747622 0)
(-0.00541196 0.000745497 0)
(-0.00581845 0.000740519 0)
(-0.00622164 0.000733001 0)
(-0.00662021 0.000723224 0)
(-0.00701297 0.000711436 0)
(-0.00739886 0.000697848 0)
(-0.00777691 0.000682643 0)
(-0.00814626 0.000665981 0)
(-0.00850613 0.000647999 0)
(-0.00885581 0.000628812 0)
(-0.00919463 0.000608518 0)
(-0.009522 0.000587194 0)
(-0.00983735 0.000564907 0)
(-0.0101402 0.000541714 0)
(-0.0104299 0.000517661 0)
(-0.0107062 0.000492789 0)
(-0.0109685 0.000467132 0)
(-0.0112165 0.000440717 0)
(-0.0114497 0.000413571 0)
(-0.0116677 0.000385716 0)
(-0.0118701 0.000357177 0)
(-0.0120566 0.000327976 0)
(-0.0122268 0.000298133 0)
(-0.0123804 0.00026767 0)
(-0.0125171 0.000236612 0)
(-0.0126365 0.000204981 0)
(-0.0127383 0.000172804 0)
(-0.0128224 0.00014011 0)
(-0.0128883 0.000106928 0)
(-0.0129359 7.32904e-05 0)
(-0.0129649 3.92321e-05 0)
(-0.0129751 4.79037e-06 0)
(-0.0129664 -2.99935e-05 0)
(-0.0129386 -6.50753e-05 0)
(-0.0128915 -0.000100408 0)
(-0.012825 -0.00013594 0)
(-0.0127391 -0.000171619 0)
(-0.0126337 -0.000207386 0)
(-0.0125088 -0.00024318 0)
(-0.0123644 -0.000278932 0)
(-0.0122006 -0.000314571 0)
(-0.0120175 -0.00035002 0)
(-0.0118151 -0.000385196 0)
(-0.0115938 -0.000420013 0)
(-0.0113537 -0.000454373 0)
(-0.0110951 -0.000488174 0)
(-0.0108184 -0.000521303 0)
(-0.010524 -0.00055364 0)
(-0.0102123 -0.00058505 0)
(-0.009884 -0.000615391 0)
(-0.00953966 -0.000644502 0)
(-0.00918003 -0.000672213 0)
(-0.00880593 -0.000698335 0)
(-0.0084183 -0.00072266 0)
(-0.00801819 -0.000744965 0)
(-0.00760677 -0.000765004 0)
(-0.00718536 -0.000782511 0)
(-0.0067554 -0.000797198 0)
(-0.00631852 -0.000808756 0)
(-0.00587649 -0.000816852 0)
(-0.00543127 -0.000821133 0)
(-0.00498501 -0.000821225 0)
(-0.00454003 -0.000816739 0)
(-0.00409886 -0.000807269 0)
(-0.00366425 -0.000792404 0)
(-0.0032391 -0.000771733 0)
(-0.00282652 -0.000744856 0)
(-0.0024298 -0.0007114 0)
(-0.00205235 -0.000671042 0)
(-0.00169766 -0.000623539 0)
(-0.0013693 -0.000568773 0)
(-0.00107073 -0.000506817 0)
(-0.000805248 -0.000438036 0)
(-0.000575799 -0.00036324 0)
(-0.000384722 -0.00028391 0)
(-0.000233454 -0.000202556 0)
(-0.000122091 -0.000123247 0)
(-4.88474e-05 -5.23173e-05 0)
(-9.85836e-06 5.68049e-07 0)
(8.43406e-07 1.9696e-05 0)
(-2.29464e-06 -9.07372e-06 0)
(-2.56416e-05 3.37527e-05 0)
(-8.79683e-05 0.000116366 0)
(-0.00019084 0.000220575 0)
(-0.000336187 0.000334532 0)
(-0.000524963 0.000450262 0)
(-0.000756476 0.000562478 0)
(-0.00102883 0.000667831 0)
(-0.0013393 0.000764318 0)
(-0.00168464 0.000850863 0)
(-0.00206127 0.000927027 0)
(-0.00246543 0.000992808 0)
(-0.00289338 0.00104849 0)
(-0.00334143 0.00109457 0)
(-0.00380604 0.00113162 0)
(-0.00428385 0.00116031 0)
(-0.00477173 0.00118131 0)
(-0.00526676 0.0011953 0)
(-0.00576627 0.00120295 0)
(-0.00626783 0.00120488 0)
(-0.00676921 0.00120167 0)
(-0.00726842 0.00119386 0)
(-0.00776363 0.00118195 0)
(-0.00825322 0.00116636 0)
(-0.00873573 0.00114749 0)
(-0.00920982 0.00112568 0)
(-0.00967433 0.00110123 0)
(-0.0101282 0.00107439 0)
(-0.0105703 0.00104539 0)
(-0.011 0.0010144 0)
(-0.0114162 0.000981601 0)
(-0.0118184 0.00094711 0)
(-0.0122057 0.000911045 0)
(-0.0125775 0.000873499 0)
(-0.0129333 0.000834551 0)
(-0.0132723 0.000794267 0)
(-0.0135942 0.000752706 0)
(-0.0138983 0.000709918 0)
(-0.0141841 0.000665949 0)
(-0.0144512 0.000620839 0)
(-0.0146991 0.000574628 0)
(-0.0149273 0.000527351 0)
(-0.0151354 0.000479048 0)
(-0.0153231 0.000429754 0)
(-0.0154898 0.000379511 0)
(-0.0156353 0.000328358 0)
(-0.0157591 0.00027634 0)
(-0.015861 0.000223503 0)
(-0.0159406 0.000169897 0)
(-0.0159976 0.000115575 0)
(-0.0160318 6.05937e-05 0)
(-0.016043 5.0157e-06 0)
(-0.0160308 -5.10924e-05 0)
(-0.0159951 -0.000107659 0)
(-0.0159358 -0.000164608 0)
(-0.0158528 -0.000221858 0)
(-0.0157459 -0.000279321 0)
(-0.0156151 -0.000336903 0)
(-0.0154604 -0.000394503 0)
(-0.0152818 -0.000452015 0)
(-0.0150795 -0.000509321 0)
(-0.0148535 -0.000566299 0)
(-0.0146041 -0.000622815 0)
(-0.0143314 -0.000678728 0)
(-0.0140358 -0.000733882 0)
(-0.0137177 -0.000788112 0)
(-0.0133774 -0.000841238 0)
(-0.0130156 -0.000893062 0)
(-0.0126328 -0.000943371 0)
(-0.0122297 -0.000991933 0)
(-0.0118071 -0.0010385 0)
(-0.0113659 -0.00108278 0)
(-0.0109072 -0.00112448 0)
(-0.0104321 -0.00116328 0)
(-0.00994184 -0.00119881 0)
(-0.00943792 -0.00123068 0)
(-0.00892194 -0.00125847 0)
(-0.00839567 -0.00128173 0)
(-0.00786107 -0.00129997 0)
(-0.0073203 -0.00131267 0)
(-0.00677574 -0.00131927 0)
(-0.00622995 -0.0013192 0)
(-0.00568575 -0.00131186 0)
(-0.00514617 -0.00129662 0)
(-0.00461444 -0.00127288 0)
(-0.00409403 -0.00124001 0)
(-0.0035886 -0.00119743 0)
(-0.00310199 -0.00114462 0)
(-0.00263816 -0.00108114 0)
(-0.00220115 -0.00100669 0)
(-0.00179503 -0.000921195 0)
(-0.00142373 -0.000824871 0)
(-0.00109096 -0.000718394 0)
(-0.000800018 -0.000603092 0)
(-0.00055356 -0.000481233 0)
(-0.000353334 -0.000356451 0)
(-0.000199788 -0.00023434 0)
(-9.16392e-05 -0.000123184 0)
(-2.65908e-05 -3.5011e-05 0)
(-2.27059e-06 1.15773e-05 0)
(-5.11194e-06 7.25148e-06 0)
(-4.16932e-05 8.87231e-05 0)
(-0.000129829 0.000213945 0)
(-0.000267188 0.000363396 0)
(-0.000453695 0.000523666 0)
(-0.000689441 0.000685355 0)
(-0.000973108 0.00084198 0)
(-0.00130233 0.000989257 0)
(-0.001674 0.00112451 0)
(-0.00208454 0.00124623 0)
(-0.00253002 0.00135373 0)
(-0.00300634 0.0014469 0)
(-0.00350936 0.00152605 0)
(-0.00403502 0.00159175 0)
(-0.00457938 0.00164477 0)
(-0.0051387 0.00168596 0)
(-0.00570944 0.00171622 0)
(-0.00628833 0.00173649 0)
(-0.0068723 0.00174766 0)
(-0.00745859 0.00175059 0)
(-0.00804464 0.0017461 0)
(-0.00862814 0.00173495 0)
(-0.00920699 0.00171783 0)
(-0.00977929 0.00169535 0)
(-0.0103433 0.00166806 0)
(-0.0108975 0.00163646 0)
(-0.0114406 0.00160098 0)
(-0.0119711 0.00156199 0)
(-0.012488 0.00151981 0)
(-0.0129902 0.00147472 0)
(-0.0134767 0.00142693 0)
(-0.0139467 0.00137667 0)
(-0.0143992 0.00132408 0)
(-0.0148336 0.00126932 0)
(-0.0152492 0.0012125 0)
(-0.0156451 0.00115373 0)
(-0.0160208 0.00109309 0)
(-0.0163756 0.00103065 0)
(-0.016709 0.0009665 0)
(-0.0170204 0.00090069 0)
(-0.0173092 0.000833283 0)
(-0.017575 0.000764336 0)
(-0.0178172 0.000693905 0)
(-0.0180353 0.000622049 0)
(-0.018229 0.000548826 0)
(-0.0183977 0.0004743 0)
(-0.0185411 0.000398536 0)
(-0.0186587 0.000321602 0)
(-0.0187503 0.000243573 0)
(-0.0188154 0.000164528 0)
(-0.0188539 8.45498e-05 0)
(-0.0188653 3.73166e-06 0)
(-0.0188495 -7.78295e-05 0)
(-0.0188063 -0.000160029 0)
(-0.0187354 -0.000242756 0)
(-0.0186369 -0.000325892 0)
(-0.0185105 -0.000409308 0)
(-0.0183562 -0.000492867 0)
(-0.0181741 -0.000576425 0)
(-0.0179641 -0.000659823 0)
(-0.0177265 -0.000742894 0)
(-0.0174613 -0.000825459 0)
(-0.0171688 -0.000907325 0)
(-0.0168493 -0.000988284 0)
(-0.0165032 -0.00106811 0)
(-0.0161308 -0.00114657 0)
(-0.0157328 -0.00122339 0)
(-0.0153097 -0.0012983 0)
(-0.0148623 -0.00137097 0)
(-0.0143913 -0.00144109 0)
(-0.0138978 -0.00150827 0)
(-0.0133828 -0.00157212 0)
(-0.0128474 -0.0016322 0)
(-0.0122931 -0.00168805 0)
(-0.0117214 -0.00173914 0)
(-0.0111339 -0.00178492 0)
(-0.0105324 -0.00182479 0)
(-0.00991917 -0.0018581 0)
(-0.00929631 -0.00188415 0)
(-0.00866637 -0.00190221 0)
(-0.00803205 -0.00191151 0)
(-0.00739632 -0.00191124 0)
(-0.00676238 -0.00190056 0)
(-0.00613367 -0.00187862 0)
(-0.00551385 -0.00184458 0)
(-0.00490685 -0.00179761 0)
(-0.00431676 -0.00173694 0)
(-0.00374786 -0.00166189 0)
(-0.00320456 -0.00157193 0)
(-0.00269133 -0.00146672 0)
(-0.00221261 -0.00134625 0)
(-0.00177274 -0.00121094 0)
(-0.00137578 -0.00106179 0)
(-0.00102537 -0.000900674 0)
(-0.000724521 -0.00073063 0)
(-0.000475446 -0.000556319 0)
(-0.000279181 -0.000384631 0)
(-0.000135272 -0.000225384 0)
(-4.34134e-05 -9.22772e-05 0)
(-5.2847e-06 -5.5324e-06 0)
(-7.76205e-06 3.18943e-05 0)
(-5.71934e-05 0.000164345 0)
(-0.000170749 0.000341752 0)
(-0.000342241 0.000544006 0)
(-0.000569442 0.000756786 0)
(-0.000851374 0.000969706 0)
(-0.00118594 0.00117537 0)
(-0.00157017 0.00136872 0)
(-0.00200051 0.00154652 0)
(-0.002473 0.00170685 0)
(-0.00298338 0.00184877 0)
(-0.00352724 0.00197209 0)
(-0.00410012 0.00207712 0)
(-0.00469765 0.00216454 0)
(-0.00531557 0.00223524 0)
(-0.0059498 0.0022903 0)
(-0.00659652 0.00233085 0)
(-0.0072521 0.00235808 0)
(-0.00791322 0.00237313 0)
(-0.00857678 0.00237713 0)
(-0.00923997 0.00237113 0)
(-0.00990021 0.00235611 0)
(-0.0105551 0.002333 0)
(-0.0112026 0.0023026 0)
(-0.0118408 0.00226566 0)
(-0.0124678 0.00222283 0)
(-0.0130821 0.00217468 0)
(-0.0136823 0.00212172 0)
(-0.014267 0.00206438 0)
(-0.0148351 0.00200304 0)
(-0.0153854 0.00193802 0)
(-0.0159168 0.00186958 0)
(-0.0164286 0.00179795 0)
(-0.0169197 0.00172335 0)
(-0.0173893 0.00164593 0)
(-0.0178367 0.00156583 0)
(-0.0182611 0.00148319 0)
(-0.0186619 0.00139811 0)
(-0.0190382 0.00131068 0)
(-0.0193896 0.00122101 0)
(-0.0197154 0.00112918 0)
(-0.0200149 0.00103526 0)
(-0.0202878 0.000939346 0)
(-0.0205333 0.000841509 0)
(-0.020751 0.000741836 0)
(-0.0209405 0.000640413 0)
(-0.0211013 0.000537334 0)
(-0.0212329 0.000432693 0)
(-0.0213349 0.000326592 0)
(-0.021407 0.00021914 0)
(-0.0214489 0.000110454 0)
(-0.0214603 6.595e-07 0)
(-0.0214409 -0.000110111 0)
(-0.0213904 -0.000221716 0)
(-0.0213087 -0.000334002 0)
(-0.0211957 -0.000446807 0)
(-0.0210513 -0.000559958 0)
(-0.0208754 -0.00067327 0)
(-0.020668 -0.000786542 0)
(-0.0204293 -0.000899563 0)
(-0.0201594 -0.00101211 0)
(-0.0198584 -0.00112392 0)
(-0.0195266 -0.00123476 0)
(-0.0191644 -0.00134433 0)
(-0.0187722 -0.00145233 0)
(-0.0183505 -0.00155844 0)
(-0.0178999 -0.00166229 0)
(-0.0174212 -0.0017635 0)
(-0.0169151 -0.00186166 0)
(-0.0163826 -0.00195631 0)
(-0.0158247 -0.00204696 0)
(-0.0152427 -0.00213306 0)
(-0.0146379 -0.00221403 0)
(-0.0140119 -0.00228924 0)
(-0.0133664 -0.00235799 0)
(-0.0127032 -0.00241954 0)
(-0.0120244 -0.00247309 0)
(-0.0113324 -0.00251777 0)
(-0.0106296 -0.00255268 0)
(-0.00991889 -0.00257683 0)
(-0.00920326 -0.00258922 0)
(-0.00848598 -0.00258877 0)
(-0.00777057 -0.00257442 0)
(-0.00706083 -0.00254506 0)
(-0.00636079 -0.00249961 0)
(-0.00567472 -0.00243702 0)
(-0.00500708 -0.00235635 0)
(-0.00436251 -0.00225675 0)
(-0.00374578 -0.00213761 0)
(-0.0031617 -0.00199859 0)
(-0.00261507 -0.00183973 0)
(-0.00211054 -0.00166166 0)
(-0.00165252 -0.00146573 0)
(-0.00124501 -0.00125432 0)
(-0.000891475 -0.00103115 0)
(-0.000594711 -0.000801743 0)
(-0.000356516 -0.000574006 0)
(-0.000177469 -0.000358845 0)
(-5.94116e-05 -0.00017098 0)
(-8.04466e-06 -3.12583e-05 0)
(-1.01719e-05 6.4322e-05 0)
(-7.16902e-05 0.000259848 0)
(-0.000209556 0.000498912 0)
(-0.000413952 0.000761464 0)
(-0.000680502 0.00103279 0)
(-0.00100709 0.0013019 0)
(-0.00139072 0.00156079 0)
(-0.00182772 0.00180385 0)
(-0.00231404 0.00202738 0)
(-0.00284529 0.00222914 0)
(-0.00341686 0.002408 0)
(-0.00402404 0.00256367 0)
(-0.0046621 0.00269649 0)
(-0.00532637 0.00280723 0)
(-0.00601233 0.00289695 0)
(-0.00671564 0.00296693 0)
(-0.00743219 0.00301854 0)
(-0.00815813 0.0030532 0)
(-0.00888987 0.00307235 0)
(-0.00962407 0.00307736 0)
(-0.0103577 0.00306954 0)
(-0.0110879 0.00305013 0)
(-0.0118122 0.00302027 0)
(-0.0125281 0.002981 0)
(-0.0132337 0.00293323 0)
(-0.0139269 0.00287782 0)
(-0.0146061 0.00281549 0)
(-0.0152696 0.00274689 0)
(-0.0159159 0.00267258 0)
(-0.0165438 0.00259304 0)
(-0.0171519 0.00250869 0)
(-0.0177392 0.00241988 0)
(-0.0183046 0.00232692 0)
(-0.0188471 0.00223007 0)
(-0.0193658 0.00212955 0)
(-0.0198598 0.00202554 0)
(-0.0203283 0.00191823 0)
(-0.0207706 0.00180775 0)
(-0.0211858 0.00169424 0)
(-0.0215733 0.00157783 0)
(-0.0219324 0.00145862 0)
(-0.0222624 0.00133673 0)
(-0.0225629 0.00121226 0)
(-0.022833 0.00108533 0)
(-0.0230724 0.000956044 0)
(-0.0232805 0.000824522 0)
(-0.0234568 0.000690882 0)
(-0.0236008 0.000555251 0)
(-0.0237121 0.000417764 0)
(-0.0237903 0.000278564 0)
(-0.0238351 0.000137803 0)
(-0.0238461 -4.35575e-06 0)
(-0.023823 -0.00014774 0)
(-0.0237657 -0.000292164 0)
(-0.023674 -0.00043743 0)
(-0.0235476 -0.000583329 0)
(-0.0233866 -0.000729634 0)
(-0.0231908 -0.000876106 0)
(-0.0229604 -0.00102249 0)
(-0.0226953 -0.0011685 0)
(-0.0223958 -0.00131386 0)
(-0.0220621 -0.00145824 0)
(-0.0216945 -0.00160131 0)
(-0.0212934 -0.0017427 0)
(-0.0208592 -0.00188202 0)
(-0.0203926 -0.00201885 0)
(-0.0198943 -0.00215272 0)
(-0.0193649 -0.00228315 0)
(-0.0188055 -0.00240959 0)
(-0.018217 -0.00253146 0)
(-0.0176008 -0.00264812 0)
(-0.016958 -0.00275887 0)
(-0.0162902 -0.00286298 0)
(-0.0155991 -0.00295962 0)
(-0.0148866 -0.00304792 0)
(-0.0141547 -0.00312692 0)
(-0.0134057 -0.00319561 0)
(-0.0126422 -0.0032529 0)
(-0.0118669 -0.00329762 0)
(-0.0110828 -0.00332856 0)
(-0.0102933 -0.00334444 0)
(-0.00950175 -0.00334394 0)
(-0.00871211 -0.00332572 0)
(-0.00792841 -0.00328842 0)
(-0.00715497 -0.00323072 0)
(-0.00639638 -0.00315135 0)
(-0.0056574 -0.00304918 0)
(-0.00494296 -0.00292322 0)
(-0.00425815 -0.00277276 0)
(-0.00360806 -0.00259745 0)
(-0.00299781 -0.00239744 0)
(-0.00243236 -0.00217351 0)
(-0.00191648 -0.00192733 0)
(-0.00145457 -0.00166172 0)
(-0.00105062 -0.00138095 0)
(-0.000708089 -0.00109124 0)
(-0.000429658 -0.000801197 0)
(-0.000217031 -0.00052241 0)
(-7.41667e-05 -0.000270073 0)
(-1.05024e-05 -6.49538e-05 0)
(-1.23323e-05 0.00010392 0)
(-8.5009e-05 0.000374028 0)
(-0.000245685 0.000683951 0)
(-0.000481208 0.00101415 0)
(-0.000785205 0.0013499 0)
(-0.00115439 0.00167997 0)
(-0.00158483 0.00199601 0)
(-0.0020721 0.00229206 0)
(-0.00261158 0.00256411 0)
(-0.00319841 0.0028097 0)
(-0.00382764 0.00302756 0)
(-0.00449422 0.00321736 0)
(-0.00519316 0.00337947 0)
(-0.00591955 0.00351479 0)
(-0.00666861 0.00362453 0)
(-0.00743578 0.00371019 0)
(-0.00821673 0.00377338 0)
(-0.00900739 0.00381578 0)
(-0.00980394 0.00383909 0)
(-0.0106029 0.00384496 0)
(-0.0114009 0.00383497 0)
(-0.0121951 0.00381061 0)
(-0.0129826 0.00377325 0)
(-0.0137611 0.00372416 0)
(-0.0145281 0.00366448 0)
(-0.0152816 0.00359523 0)
(-0.0160198 0.00351732 0)
(-0.0167409 0.00343154 0)
(-0.0174433 0.00333858 0)
(-0.0181255 0.00323905 0)
(-0.0187862 0.00313346 0)
(-0.0194242 0.00302227 0)
(-0.0200383 0.00290586 0)
(-0.0206275 0.00278456 0)
(-0.0211907 0.00265865 0)
(-0.021727 0.00252838 0)
(-0.0222355 0.00239395 0)
(-0.0227154 0.00225557 0)
(-0.0231658 0.00211341 0)
(-0.023586 0.00196762 0)
(-0.0239753 0.00181834 0)
(-0.0243329 0.00166574 0)
(-0.0246583 0.00150993 0)
(-0.0249507 0.00135107 0)
(-0.0252096 0.0011893 0)
(-0.0254344 0.00102476 0)
(-0.0256246 0.000857607 0)
(-0.0257797 0.000688005 0)
(-0.0258992 0.000516121 0)
(-0.0259828 0.000342137 0)
(-0.02603 0.000166244 0)
(-0.0260405 -1.13529e-05 0)
(-0.0260141 -0.000190437 0)
(-0.0259504 -0.000370777 0)
(-0.0258493 -0.000552125 0)
(-0.0257107 -0.000734217 0)
(-0.0255344 -0.000916774 0)
(-0.0253204 -0.00109949 0)
(-0.0250688 -0.00128205 0)
(-0.0247797 -0.00146411 0)
(-0.0244533 -0.00164531 0)
(-0.0240897 -0.00182524 0)
(-0.0236895 -0.00200349 0)
(-0.0232529 -0.0021796 0)
(-0.0227805 -0.00235309 0)
(-0.022273 -0.00252342 0)
(-0.0217312 -0.00269002 0)
(-0.0211558 -0.00285229 0)
(-0.0205478 -0.00300954 0)
(-0.0199085 -0.00316104 0)
(-0.0192391 -0.00330602 0)
(-0.018541 -0.00344362 0)
(-0.0178159 -0.0035729 0)
(-0.0170656 -0.00369286 0)
(-0.0162921 -0.00380242 0)
(-0.0154977 -0.00390042 0)
(-0.0146849 -0.00398559 0)
(-0.0138562 -0.00405662 0)
(-0.0130148 -0.00411208 0)
(-0.0121638 -0.00415049 0)
(-0.0113067 -0.00417031 0)
(-0.0104474 -0.00416995 0)
(-0.00958975 -0.00414779 0)
(-0.00873822 -0.00410222 0)
(-0.00789735 -0.00403166 0)
(-0.00707195 -0.00393463 0)
(-0.00626706 -0.00380979 0)
(-0.00548788 -0.00365603 0)
(-0.00473975 -0.00347254 0)
(-0.00402805 -0.00325895 0)
(-0.00335817 -0.00301545 0)
(-0.00273542 -0.00274301 0)
(-0.00216492 -0.00244353 0)
(-0.00165153 -0.00212018 0)
(-0.00119981 -0.00177767 0)
(-0.000813942 -0.00142266 0)
(-0.000497531 -0.00106423 0)
(-0.000253415 -0.000714293 0)
(-8.7534e-05 -0.000388094 0)
(-1.26598e-05 -0.000105872 0)
(-1.42548e-05 0.000150036 0)
(-9.71267e-05 0.000505488 0)
(-0.000278919 0.000895081 0)
(-0.000543523 0.00130003 0)
(-0.000882734 0.00170593 0)
(-0.00129214 0.00210158 0)
(-0.00176686 0.00247851 0)
(-0.00230171 0.0028306 0)
(-0.00289143 0.0031537 0)
(-0.00353072 0.00344521 0)
(-0.0042142 0.00370383 0)
(-0.00493652 0.00392922 0)
(-0.00569241 0.00412183 0)
(-0.00647671 0.00428268 0)
(-0.00728443 0.00441319 0)
(-0.0081108 0.00451506 0)
(-0.0089513 0.00459016 0)
(-0.00980166 0.00464043 0)
(-0.0106579 0.00466785 0)
(-0.0115163 0.00467434 0)
(-0.0123735 0.00466176 0)
(-0.0132263 0.00463186 0)
(-0.0140717 0.00458626 0)
(-0.0149073 0.00452646 0)
(-0.0157305 0.00445382 0)
(-0.0165391 0.00436955 0)
(-0.0173311 0.00427474 0)
(-0.0181047 0.00417033 0)
(-0.0188581 0.00405718 0)
(-0.0195899 0.003936 0)
(-0.0202985 0.00380743 0)
(-0.0209827 0.00367202 0)
(-0.0216411 0.00353022 0)
(-0.0222728 0.00338246 0)
(-0.0228765 0.00322907 0)
(-0.0234512 0.00307036 0)
(-0.0239961 0.00290661 0)
(-0.0245101 0.00273803 0)
(-0.0249925 0.00256487 0)
(-0.0254424 0.00238729 0)
(-0.0258591 0.00220551 0)
(-0.0262417 0.00201969 0)
(-0.0265897 0.00183 0)
(-0.0269022 0.00163663 0)
(-0.0271788 0.00143975 0)
(-0.0274188 0.00123954 0)
(-0.0276216 0.00103619 0)
(-0.0277867 0.000829906 0)
(-0.0279137 0.000620889 0)
(-0.0280021 0.000409362 0)
(-0.0280514 0.00019556 0)
(-0.0280615 -2.02679e-05 0)
(-0.0280319 -0.000237857 0)
(-0.0279623 -0.000456924 0)
(-0.0278527 -0.00067717 0)
(-0.0277028 -0.000898273 0)
(-0.0275126 -0.00111989 0)
(-0.027282 -0.00134166 0)
(-0.0270111 -0.00156319 0)
(-0.0267 -0.00178407 0)
(-0.026349 -0.00200385 0)
(-0.0259583 -0.00222204 0)
(-0.0255282 -0.00243815 0)
(-0.0250593 -0.00265162 0)
(-0.0245521 -0.00286186 0)
(-0.0240074 -0.00306822 0)
(-0.0234258 -0.00327002 0)
(-0.0228084 -0.0034665 0)
(-0.0221563 -0.00365686 0)
(-0.0214705 -0.00384022 0)
(-0.0207526 -0.00401563 0)
(-0.0200041 -0.00418205 0)
(-0.0192267 -0.00433837 0)
(-0.0184224 -0.00448339 0)
(-0.0175932 -0.0046158 0)
(-0.0167417 -0.00473421 0)
(-0.0158704 -0.00483713 0)
(-0.0149822 -0.00492297 0)
(-0.0140803 -0.00499006 0)
(-0.0131679 -0.00503664 0)
(-0.0122489 -0.00506088 0)
(-0.0113273 -0.00506093 0)
(-0.0104071 -0.00503487 0)
(-0.00949308 -0.00498084 0)
(-0.00858993 -0.00489701 0)
(-0.0077027 -0.00478166 0)
(-0.00683667 -0.00463326 0)
(-0.00599727 -0.00445055 0)
(-0.00519008 -0.00423261 0)
(-0.00442077 -0.00397905 0)
(-0.003695 -0.00369008 0)
(-0.00301842 -0.00336676 0)
(-0.00239655 -0.00301121 0)
(-0.00183472 -0.00262682 0)
(-0.00133808 -0.00221859 0)
(-0.000911578 -0.00179347 0)
(-0.000559736 -0.00136075 0)
(-0.000286473 -0.000932398 0)
(-9.95154e-05 -0.000523417 0)
(-1.45395e-05 -0.000153256 0)
(-1.59582e-05 0.000202021 0)
(-0.000108081 0.000652787 0)
(-0.000309264 0.00113036 0)
(-0.000600806 0.00161689 0)
(-0.000972846 0.00209846 0)
(-0.00141994 0.00256415 0)
(-0.00193629 0.00300558 0)
(-0.00251593 0.00341663 0)
(-0.00315297 0.00379312 0)
(-0.00384162 0.00413246 0)
(-0.00457611 0.00443337 0)
(-0.00535074 0.00469559 0)
(-0.00615995 0.00491968 0)
(-0.00699834 0.00510682 0)
(-0.00786072 0.00525863 0)
(-0.00874213 0.00537707 0)
(-0.00963785 0.00546424 0)
(-0.0105435 0.00552239 0)
(-0.0114548 0.00555375 0)
(-0.0123681 0.00556055 0)
(-0.0132797 0.00554491 0)
(-0.0141864 0.00550886 0)
(-0.015085 0.00545428 0)
(-0.015973 0.00538289 0)
(-0.0168476 0.00529628 0)
(-0.0177066 0.00519587 0)
(-0.0185479 0.00508293 0)
(-0.0193695 0.00495857 0)
(-0.0201697 0.00482378 0)
(-0.0209467 0.00467943 0)
(-0.0216991 0.00452626 0)
(-0.0224254 0.00436492 0)
(-0.0231243 0.00419597 0)
(-0.0237947 0.00401989 0)
(-0.0244354 0.00383712 0)
(-0.0250452 0.003648 0)
(-0.0256232 0.00345287 0)
(-0.0261685 0.00325202 0)
(-0.02668 0.00304571 0)
(-0.027157 0.00283417 0)
(-0.0275986 0.00261763 0)
(-0.0280041 0.00239632 0)
(-0.0283727 0.00217044 0)
(-0.0287036 0.00194021 0)
(-0.0289963 0.00170583 0)
(-0.0292502 0.00146754 0)
(-0.0294645 0.00122556 0)
(-0.0296388 0.000980116 0)
(-0.0297726 0.000731474 0)
(-0.0298653 0.000479893 0)
(-0.0299167 0.000225655 0)
(-0.0299263 -3.09457e-05 0)
(-0.0298938 -0.000289591 0)
(-0.029819 -0.000549947 0)
(-0.0297016 -0.000811654 0)