/*--------------------------------*- C++ -*----------------------------------*\
| =========                 |                                                 |
| \\      /  F ield         | OpenFOAM: The Open Source CFD Toolbox           |
|  \\    /   O peration     | Version:  2512                                  |
|   \\  /    A nd           | Website:  www.openfoam.com                      |
|    \\/     M anipulation  |                                                 |
\*---------------------------------------------------------------------------*/
FoamFile
{
    version     2.0;
    format      ascii;
    arch        "LSB;label=32;scalar=64";
    class       volScalarField;
    location    "0.44";
    object      p;
}
// * * * * * * * * * * * * * * * * * * * * * * * * * * * * * * * * * * * * * //

dimensions      [0 2 -2 0 0 0 0];

internalField   nonuniform List<scalar> 
10000
(
1.19316e-08
5.45184e-06
-2.08992e-05
-8.12231e-05
-0.000169365
-0.000278772
-0.000403355
-0.000537654
-0.000677006
-0.000817478
-0.000955798
-0.00108926
-0.00121564
-0.00133314
-0.00144029
-0.00153592
-0.00161911
-0.00168914
-0.00174545
-0.00178761
-0.00181531
-0.00182833
-0.00182652
-0.00180982
-0.00177818
-0.00173159
-0.00167008
-0.00159369
-0.00150252
-0.00139664
-0.00127616
-0.00114121
-0.000991935
-0.000828504
-0.000651131
-0.000460055
-0.00025554
-3.78998e-05
0.000192501
0.000435243
0.000689847
0.00095578
0.00123245
0.00151918
0.00181525
0.00211982
0.00243201
0.00275083
0.00307524
0.0034041
0.0037362
0.00407028
0.00440499
0.00473894
0.00507068
0.00539871
0.00572149
0.00603746
0.00634505
0.0066427
0.00692885
0.00720199
0.00746064
0.00770339
0.0079289
0.00813593
0.00832332
0.00849008
0.0086353
0.00875827
0.00885843
0.00893538
0.00898892
0.00901905
0.00902597
0.00901006
0.00897192
0.00891236
0.00883241
0.00873328
0.0086164
0.0084834
0.00833611
0.00817653
0.00800688
0.00782953
0.00764705
0.00746217
0.00727778
0.00709696
0.00692295
0.00675916
0.00660913
0.00647652
0.00636505
0.00627828
0.00621917
0.00618945
0.00618873
0.00620819
-2.25223e-06
3.18015e-06
-2.12144e-05
-7.37339e-05
-0.000148772
-0.000241741
-0.000348128
-0.000463561
-0.00058414
-0.000706438
-0.000827512
-0.000944869
-0.00105642
-0.00116041
-0.0012554
-0.00134021
-0.00141387
-0.00147564
-0.0015249
-0.00156117
-0.00158408
-0.00159337
-0.00158885
-0.00157039
-0.0015379
-0.00149134
-0.00143071
-0.00135605
-0.00126739
-0.00116481
-0.00104841
-0.000918283
-0.000774583
-0.000617484
-0.00044719
-0.000263933
-6.79742e-05
0.000140378
0.000360757
0.00059275
0.000835886
0.00108964
0.00135345
0.00162666
0.00190855
0.00219836
0.0024952
0.00279814
0.00310619
0.00341827
0.00373324
0.00404989
0.00436697
0.00468316
0.0049971
0.00530738
0.00561258
0.00591122
0.00620185
0.00648302
0.00675327
0.00701121
0.00725548
0.00748478
0.00769787
0.00789361
0.00807095
0.00822898
0.00836689
0.00848403
0.00857991
0.0086542
0.00870673
0.00873754
0.00874683
0.00873501
0.00870265
0.00865055
0.00857968
0.00849121
0.00838649
0.00826707
0.00813466
0.00799116
0.00783864
0.00767932
0.00751557
0.00734991
0.00718502
0.00702367
0.00686878
0.00672334
0.00659041
0.00647305
0.00637424
0.00629666
0.00624231
0.00621226
0.00620811
0.00622763
2.88191e-05
3.13549e-05
6.28819e-06
-4.29319e-05
-0.000111031
-0.000194378
-0.000289362
-0.000392389
-0.000500138
-0.00060963
-0.000718242
-0.00082371
-0.000924105
-0.00101779
-0.00110336
-0.00117968
-0.0012458
-0.00130096
-0.00134453
-0.00137601
-0.00139501
-0.00140123
-0.00139447
-0.00137455
-0.00134137
-0.00129486
-0.00123499
-0.00116179
-0.00107528
-0.00097551
-0.000862565
-0.000736545
-0.000597584
-0.000445852
-0.000281546
-0.000104887
8.38659e-05
0.000284413
0.000496395
0.000719407
0.000952993
0.00119665
0.00144981
0.00171187
0.00198212
0.00225982
0.00254413
0.00283416
0.00312894
0.00342745
0.0037286
0.00403125
0.00433419
0.00463619
0.00493595
0.00523212
0.00552337
0.0058083
0.00608553
0.0063537
0.00661145
0.00685746
0.00709045
0.0073092
0.00751256
0.00769946
0.00786893
0.00802011
0.00815227
0.00826481
0.00835729
0.0084294
0.00848103
0.00851222
0.00852319
0.00851435
0.00848625
0.00843968
0.00837558
0.00829505
0.00819941
0.00809012
0.00796881
0.00783728
0.00769747
0.00755148
0.00740153
0.00724996
0.00709925
0.00695194
0.00681066
0.00667812
0.006557
0.00644996
0.00635953
0.00628799
0.00623702
0.00620776
0.00620383
0.00622708
9.38703e-05
8.76463e-05
5.80331e-05
8.13368e-06
-5.77148e-05
-0.000136413
-0.000224915
-0.000320187
-0.0004194
-0.000519967
-0.000619583
-0.000716221
-0.000808123
-0.000893777
-0.000971894
-0.0010414
-0.00110138
-0.00115111
-0.00118995
-0.00121742
-0.00123311
-0.00123675
-0.00122809
-0.00120695
-0.0011732
-0.00112677
-0.00106763
-0.000995771
-0.000911204
-0.000813974
-0.000704146
-0.000581813
-0.000447102
-0.000300172
-0.000141207
2.95816e-05
0.000211945
0.00040559
0.000610173
0.000825299
0.00105053
0.00128537
0.0015293
0.00178171
0.00204194
0.00230926
0.00258286
0.00286189
0.00314542
0.00343246
0.00372199
0.0040129
0.00430404
0.00459423
0.00488222
0.00516673
0.00544647
0.00572012
0.00598637
0.00624391
0.00649145
0.00672774
0.00695156
0.00716174
0.00735721
0.00753694
0.00770002
0.00784563
0.0079731
0.00808185
0.00817149
0.00824174
0.0082925
0.00832384
0.00833596
0.00832928
0.00830435
0.00826192
0.00820291
0.00812838
0.0080396
0.00793796
0.00782502
0.0077025
0.00757224
0.00743621
0.00729652
0.00715534
0.00701498
0.00687779
0.00674618
0.0066226
0.00650949
0.0064092
0.00632403
0.00625606
0.0062069
0.00617795
0.00617385
0.00619807
0.00018643
0.000166333
0.000128658
7.51817e-05
8.61476e-06
-6.83896e-05
-0.000153237
-0.000243403
-0.000336497
-0.000430308
-0.000522845
-0.00061233
-0.000697187
-0.000776051
-0.000847759
-0.000911324
-0.000965903
-0.00101079
-0.00104539
-0.00106924
-0.00108196
-0.00108326
-0.00107289
-0.00105066
-0.00101646
-0.000970188
-0.000911813
-0.000841309
-0.000758676
-0.000663946
-0.000557177
-0.000438453
-0.000307889
-0.000165627
-1.18408e-05
0.000153269
0.000329469
0.000516478
0.000713966
0.000921556
0.00113882
0.00136531
0.0016005
0.00184381
0.00209463
0.00235222
0.00261584
0.00288464
0.00315774
0.00343421
0.00371304
0.00399319
0.00427355
0.00455297
0.00483027
0.00510422
0.00537357
0.00563708
0.00589346
0.00614148
0.0063799
0.00660751
0.00682316
0.00702572
0.00721417
0.00738752
0.00754491
0.00768556
0.00780883
0.00791418
0.00800123
0.00806974
0.00811961
0.00815091
0.00816388
0.00815889
0.00813651
0.00809746
0.00804262
0.00797303
0.00788989
0.00779455
0.00768851
0.00757338
0.00745093
0.00732303
0.00719163
0.0070588
0.00692667
0.00679741
0.00667326
0.00655643
0.00644914
0.00635353
0.00627167
0.00620552
0.00615662
0.0061265
0.00611988
0.00614042
0.000300655
0.000263164
0.000214676
0.000155166
8.53833e-05
7.57357e-06
-7.6051e-05
-0.000163422
-0.000252551
-0.000341584
-0.000428823
-0.000512726
-0.000591922
-0.000665212
-0.000731563
-0.000790085
-0.000840009
-0.000880683
-0.000911579
-0.000932255
-0.000942361
-0.000941605
-0.000929752
-0.000906624
-0.000872093
-0.000826078
-0.000768527
-0.000699405
-0.000618701
-0.000526438
-0.000422669
-0.000307465
-0.000180929
-4.31862e-05
0.000105605
0.000265255
0.000435546
0.000616214
0.000806942
0.00100738
0.00121712
0.00143572
0.0016627
0.00189752
0.00213955
0.00238812
0.00264249
0.00290187
0.00316541
0.0034322
0.0037013
0.00397168
0.0042423
0.00451203
0.00477974
0.00504424
0.00530434
0.00555882
0.00580647
0.00604607
0.00627645
0.00649644
0.00670492
0.00690081
0.0070831
0.00725088
0.00740328
0.00753959
0.00765916
0.00776149
0.00784622
0.00791311
0.00796209
0.00799323
0.00800674
0.00800302
0.0079826
0.00794619
0.00789465
0.00782897
0.00775032
0.00765998
0.0075594
0.00745013
0.00733382
0.00721226
0.00708731
0.00696088
0.00683497
0.00671159
0.00659282
0.00648067
0.00637717
0.00628427
0.00620387
0.00613776
0.00608744
0.00605444
0.00604289
0.00605588
0.000431046
0.00037402
0.000312684
0.000245144
0.000170062
8.93184e-05
4.80825e-06
-8.18062e-05
-0.000168916
-0.00025498
-0.000338573
-0.000418388
-0.00049326
-0.000562164
-0.000624199
-0.000678579
-0.000724623
-0.000761758
-0.000789512
-0.000807496
-0.000815379
-0.000812892
-0.000799819
-0.000775995
-0.0007413
-0.000695655
-0.000639001
-0.000571296
-0.000492521
-0.000402694
-0.00030186
-0.00019008
-6.7437e-05
6.59543e-05
0.000209955
0.000364391
0.000529059
0.000703711
0.000888051
0.00108175
0.00128443
0.00149567
0.00171503
0.00194197
0.0021759
0.00241618
0.0026621
0.0029129
0.00316777
0.00342584
0.00368619
0.00394785
0.00420978
0.00447093
0.00473017
0.00498637
0.00523837
0.00548498
0.00572504
0.00595738
0.00618082
0.00639426
0.00659658
0.00678676
0.00696381
0.00712682
0.00727498
0.00740757
0.00752396
0.00762369
0.00770638
0.00777182
0.00781993
0.00785078
0.00786458
0.00786172
0.00784271
0.00780825
0.00775916
0.00769641
0.00762112
0.00753453
0.00743803
0.0073331
0.00722133
0.00710441
0.00698409
0.00686218
0.00674056
0.00662111
0.00650573
0.00639629
0.00629465
0.00620259
0.00612185
0.00605407
0.00600068
0.00596314
0.00594459
0.00594714
0.000572583
0.000494801
0.000419243
0.00034217
0.000260149
0.000174761
8.76407e-05
7.97697e-08
-8.665e-05
-0.000171294
-0.00025268
-0.000329733
-0.00040149
-0.000467089
-0.000525766
-0.000576846
-0.00061975
-0.00065399
-0.000679164
-0.000694929
-0.000700986
-0.000697099
-0.000683083
-0.00065879
-0.000624111
-0.000578969
-0.000523303
-0.000457066
-0.000380239
-0.000292834
-0.000194888
-8.64483e-05
3.24186e-05
0.000161614
0.000301015
0.000450465
0.000609776
0.00077872
0.000957026
0.00114439
0.00134045
0.00154484
0.00175711
0.00197677
0.00220326
0.00243595
0.00267417
0.00291719
0.00316424
0.00341448
0.00366703
0.00392094
0.00417521
0.00442881
0.00468065
0.00492963
0.00517462
0.00541447
0.00564803
0.00587417
0.00609173
0.00629963
0.00649679
0.00668218
0.00685483
0.00701387
0.00715849
0.00728797
0.00740171
0.00749924
0.00758019
0.00764435
0.00769164
0.00772212
0.007736
0.00773365
0.00771558
0.00768244
0.00763505
0.00757433
0.00750139
0.00741741
0.00732373
0.00722177
0.00711307
0.00699922
0.00688189
0.00676281
0.00664372
0.00652641
0.00641262
0.00630411
0.00620257
0.00610965
0.00602693
0.00595591
0.00589793
0.00585436
0.00582714
0.00581724
0.000720864
0.000621751
0.000531095
0.000443393
0.000353195
0.000261822
0.000170696
8.07874e-05
-6.92847e-06
-9.14626e-05
-0.000171885
-0.000247341
-0.000317054
-0.000380319
-0.000436508
-0.00048507
-0.000525531
-0.000557496
-0.000580627
-0.000594632
-0.00059926
-0.000594314
-0.000579642
-0.000555117
-0.000520647
-0.000476156
-0.000421584
-0.000356885
-0.000282042
-0.000197064
-0.000101975
3.19135e-06
0.000118385
0.000243524
0.000378498
0.000523171
0.000677373
0.000840898
0.0010135
0.0011949
0.00138478
0.00158278
0.00178849
0.00200144
0.00222109
0.00244685
0.00267808
0.00291409
0.00315412
0.00339739
0.00364302
0.00389011
0.00413768
0.00438472
0.00463018
0.00487297
0.00511199
0.00534612
0.00557422
0.00579518
0.00600787
0.0062112
0.00640412
0.00658561
0.00675471
0.00691054
0.00705229
0.00717928
0.00729088
0.00738662
0.00746615
0.00752924
0.00757579
0.00760587
0.00761967
0.00761755
0.00759999
0.00756763
0.00752127
0.0074618
0.00739028
0.00730789
0.00721589
0.00711567
0.00700869
0.00689649
0.00678067
0.00666286
0.00654472
0.00642791
0.0063141
0.00620489
0.00610187
0.00600656
0.00592038
0.0058447
0.0057808
0.00572992
0.00569275
0.00566905
0.000872049
0.000751465
0.000645211
0.000546125
0.000446829
0.000348434
0.00025219
0.000158796
6.89646e-05
-1.65687e-05
-9.71004e-05
-0.000171974
-0.000240586
-0.000302384
-0.000356878
-0.000403645
-0.000442321
-0.000472593
-0.000494194
-0.000506887
-0.00051048
-0.000504818
-0.000489783
-0.000465277
-0.000431215
-0.000387533
-0.000334175
-0.000271102
-0.000198298
-0.000115765
-2.35158e-05
7.84304e-05
0.000190037
0.00031124
0.000441947
0.000582036
0.000731359
0.000889737
0.00105695
0.00123276
0.00141685
0.00160891
0.00180855
0.00201532
0.00222872
0.00244819
0.00267311
0.00290283
0.00313662
0.00337372
0.0036133
0.00385445
0.00409624
0.00433767
0.0045777
0.00481529
0.00504933
0.00527874
0.00550238
0.00571915
0.00592794
0.00612766
0.00631724
0.00649569
0.00666205
0.00681542
0.00695501
0.0070801
0.00719009
0.00728449
0.00736293
0.00742517
0.00747112
0.00750081
0.00751442
0.0075123
0.00749491
0.00746287
0.00741695
0.00735803
0.00728713
0.00720539
0.00711404
0.00701443
0.00690796
0.00679612
0.00668044
0.00656249
0.00644384
0.00632607
0.00621074
0.00609938
0.00599344
0.00589434
0.00580338
0.0057218
0.00565081
0.00559158
0.0055435
0.00550515
0.00102282
0.000880889
0.000758804
0.000647839
0.000538774
0.000432574
0.000330354
0.000232568
0.000139685
5.22166e-05
-2.9337e-05
-0.000104501
-0.000172831
-0.000233932
-0.000287453
-0.000333092
-0.000370588
-0.000399711
-0.000420266
-0.000432084
-0.000435028
-0.000428992
-0.000413893
-0.000389656
-0.000356211
-0.000313506
-0.000261498
-0.000200154
-0.000129456
-4.94004e-05
4.00109e-05
0.000138773
0.000246866
0.000364238
0.000490815
0.000626494
0.000771153
0.000924638
0.00108676
0.0012573
0.001436
0.00162254
0.00181657
0.00201768
0.00222539
0.00243916
0.00265843
0.00288255
0.00311084
0.00334255
0.00357687
0.00381294
0.00404982
0.00428654
0.00452209
0.00475542
0.00498546
0.0052111
0.00543126
0.0056448
0.00585063
0.00604764
0.00623479
0.00641106
0.00657547
0.00672714
0.00686525
0.00698908
0.007098
0.00719151
0.00726923
0.0073309
0.0073764
0.00740576
0.00741915
0.00741686
0.00739937
0.00736727
0.00732129
0.0072623
0.00719129
0.00710937
0.00701775
0.00691772
0.00681066
0.00669801
0.00658124
0.00646186
0.00634137
0.00622129
0.0061031
0.00598823
0.00587807
0.00577393
0.00567701
0.00558843
0.00550937
0.00544093
0.00538125
0.00532775
0.00117026
0.00100726
0.000869305
0.000746161
0.000626869
0.000512293
0.00040344
0.000300541
0.000203844
0.000113667
3.03301e-05
-4.58635e-05
-0.000114629
-0.000175717
-0.000228911
-0.000274027
-0.000310896
-0.000339375
-0.000359342
-0.000370703
-0.000373377
-0.000367304
-0.000352436
-0.00032872
-0.000296106
-0.00025456
-0.00020405
-0.00014455
-7.60401e-05
1.49129e-06
8.8053e-05
0.000183653
0.000288284
0.000401912
0.000524479
0.000655905
0.000796092
0.000944918
0.00110223
0.00126782
0.00144147
0.00162289
0.00181176
0.00200768
0.00221023
0.00241888
0.0026331
0.00285229
0.00307577
0.00330284
0.00353269
0.00376448
0.0039973
0.00423019
0.00446214
0.00469213
0.00491908
0.00514191
0.00535951
0.00557076
0.00577455
0.00596978
0.00615537
0.0063303
0.00649358
0.0066443
0.00678163
0.00690483
0.00701325
0.00710636
0.00718376
0.00724518
0.00729046
0.00731961
0.00733277
0.00733024
0.00731244
0.00727996
0.0072335
0.00717391
0.00710217
0.00701934
0.00692662
0.00682526
0.00671662
0.00660208
0.00648309
0.0063611
0.00623757
0.00611395
0.00599166
0.00587208
0.00575651
0.00564619
0.00554226
0.00544571
0.00535773
0.0052794
0.0052076
0.0051387
0.00131176
0.00112808
0.000974336
0.000838874
0.000709071
0.000585715
0.000469734
0.000361155
0.000260036
0.000166524
8.077e-05
2.91883e-06
-6.69008e-05
-0.000128579
-0.000182023
-0.000227154
-0.000263899
-0.000292199
-0.000312017
-0.000323321
-0.00032609
-0.000320308
-0.00030596
-0.000283018
-0.000251455
-0.000211257
-0.000162406
-0.000104877
-3.86484e-05
3.62984e-05
0.000119981
0.000212422
0.000313627
0.000423577
0.000542233
0.000669539
0.000805429
0.00094981
0.00110255
0.00126349
0.00143242
0.00160909
0.00179321
0.0019844
0.00218228
0.00238635
0.00259612
0.00281099
0.00303034
0.00325346
0.00347958
0.00370787
0.00393744
0.00416733
0.00439655
0.00462408
0.00484886
0.00506978
0.00528575
0.00549563
0.0056983
0.00589263
0.00607754
0.00625198
0.00641494
0.00656549
0.00670276
0.00682599
0.0069345
0.00702774
0.00710527
0.00716679
0.00721212
0.00724124
0.00725426
0.00725145
0.00723322
0.00720013
0.00715286
0.00709223
0.00701921
0.00693483
0.00684028
0.00673678
0.00662565
0.00650826
0.00638602
0.00626035
0.00613267
0.00600438
0.00587687
0.00575146
0.00562941
0.0055119
0.0054
0.00529464
0.00519701
0.0051082
0.00502393
0.0049395
0.00144501
0.00124107
0.00107171
0.000923913
0.000783442
0.000651031
0.000527554
0.000412865
0.000306852
0.000209503
0.000120813
4.07703e-05
-3.06384e-05
-9.34326e-05
-0.000147632
-0.000193258
-0.000230335
-0.00025889
-0.000278966
-0.000290595
-0.000293809
-0.000288636
-0.00027509
-0.000253174
-0.00022289
-0.00018424
-0.000137215
-8.17928e-05
-1.79534e-05
5.43316e-05
0.000135093
0.00022436
0.000322153
0.000428468
0.000543291
0.000666594
0.000798337
0.000938458
0.00108686
0.0012434
0.00140792
0.00158018
0.00175992
0.00194681
0.00214048
0.00234049
0.00254634
0.00275749
0.00297333
0.00319318
0.00341628
0.00364182
0.00386891
0.00409661
0.00432394
0.00454988
0.00477335
0.00499327
0.00520851
0.00541793
0.00562037
0.00581471
0.00599982
0.00617462
0.00633809
0.00648925
0.00662721
0.00675116
0.0068604
0.00695433
0.00703249
0.00709453
0.00714024
0.00716957
0.0071826
0.00717957
0.00716086
0.007127
0.00707866
0.00701664
0.00694188
0.00685541
0.00675838
0.006652
0.00653759
0.00641648
0.00629006
0.00615972
0.00602688
0.0058929
0.00575914
0.00562688
0.00549737
0.00537173
0.00525099
0.00513606
0.00502815
0.00492837
0.00483133
0.00473133
0.0015679
0.00134416
0.00115942
0.000999335
0.00084813
0.000706494
0.00057527
0.00045416
0.000342894
0.000241308
0.000149251
6.65673e-05
-6.88615e-06
-7.12458e-05
-0.00012664
-0.00017319
-0.000211015
-0.000240228
-0.000260943
-0.000273257
-0.00027725
-0.000272987
-0.000260522
-0.00023989
-0.000211116
-0.000174217
-0.000129196
-7.60328e-05
-1.47004e-05
5.48351e-05
0.00013261
0.000218666
0.000313038
0.000415743
0.00052679
0.000646179
0.0007739
0.000909922
0.00105418
0.00120656
0.00136693
0.00153508
0.0017108
0.00189377
0.00208367
0.00228008
0.00248254
0.00269053
0.00290346
0.00312067
0.00334143
0.00356492
0.00379028
0.00401657
0.00424282
0.004468
0.00469104
0.00491083
0.00512623
0.00533608
0.00553921
0.00573445
0.00592064
0.00609669
0.00626151
0.0064141
0.00655352
0.00667893
0.00678958
0.00688482
0.00696416
0.00702719
0.00707368
0.00710353
0.00711679
0.00711366
0.00709449
0.0070598
0.00701022
0.00694654
0.00686967
0.00678064
0.00668058
0.0065707
0.00645227
0.00632666
0.00619521
0.00605933
0.00592039
0.00577977
0.0056388
0.00549877
0.00536087
0.00522625
0.00509589
0.00497068
0.00485191
0.00474073
0.00463068
0.00451509
0.00167849
0.00143542
0.00123557
0.0010633
0.000901371
0.000750431
0.000611304
0.000483555
0.000366766
0.000260628
0.000164851
7.9155e-05
3.27537e-06
-6.30345e-05
-0.000120008
-0.000167866
-0.000206818
-0.000237062
-0.000258771
-0.000272105
-0.000277191
-0.000274135
-0.000263027
-0.000243935
-0.000216906
-0.000181972
-0.00013914
-8.83931e-05
-2.97019e-05
3.69734e-05
0.000111679
0.000194467
0.000285388
0.000384482
0.000491783
0.000607322
0.00073112
0.000863176
0.00100345
0.00115187
0.00130833
0.00147265
0.00164465
0.00182406
0.00201058
0.00220383
0.00240338
0.00260873
0.00281931
0.00303448
0.00325353
0.00347566
0.00370001
0.00392565
0.0041516
0.00437684
0.00460029
0.00482082
0.00503727
0.00524845
0.00545317
0.00565021
0.0058384
0.00601657
0.00618362
0.00633849
0.00648019
0.00660784
0.00672062
0.00681785
0.00689897
0.00696355
0.00701128
0.00704203
0.00705581
0.00705279
0.00703328
0.00699776
0.00694686
0.00688134
0.00680209
0.00671012
0.00660656
0.00649261
0.00636955
0.00623872
0.00610148
0.00595923
0.00581335
0.00566522
0.00551616
0.00536747
0.00522035
0.00507594
0.00493523
0.00479911
0.00466893
0.00454594
0.00442265
0.00429143
0.00177499
0.00151307
0.00129838
0.00111408
0.00094149
0.000781237
0.000634127
0.000499594
0.000377079
0.000266142
0.000166366
7.73553e-05
-1.26628e-06
-6.98534e-05
-0.000128745
-0.000178258
-0.000218684
-0.000250292
-0.000273328
-0.000287999
-0.000294476
-0.000292913
-0.000283439
-0.000266146
-0.0002411
-0.000208346
-0.0001679
-0.000119743
-6.38433e-05
-1.54599e-07
7.13761e-05
0.000150815
0.00023823
0.000333685
0.000437247
0.000548971
0.000668912
0.000797098
0.000933524
0.00107815
0.00123089
0.00139162
0.00156017
0.00173634
0.00191984
0.00211033
0.0023074
0.00251059
0.00271934
0.00293305
0.003151
0.00337241
0.00359643
0.00382215
0.00404857
0.00427467
0.00449936
0.00472148
0.00493986
0.00515328
0.00536049
0.00556027
0.00575137
0.00593259
0.00610277
0.00626081
0.00640566
0.00653636
0.00665207
0.00675202
0.00683561
0.00690233
0.00695185
0.00698397
0.00699866
0.00699603
0.00697638
0.00694014
0.00688792
0.00682045
0.00673862
0.00664343
0.00653598
0.00641749
0.00628924
0.00615257
0.00600885
0.00585949
0.00570589
0.00554943
0.00539147
0.0052333
0.00507617
0.00492121
0.00476945
0.00462179
0.00447969
0.0043445
0.00420771
0.00406079
0.00185571
0.00157538
0.00134618
0.00115004
0.000966893
0.000797371
0.000642251
0.000500842
0.000372456
0.000256534
0.000152546
5.99825e-05
-2.16447e-05
-9.27963e-05
-0.000153905
-0.000205379
-0.000247593
-0.00028088
-0.000305544
-0.000321845
-0.000330006
-0.000330223
-0.000322653
-0.000307416
-0.000284596
-0.00025425
-0.000216395
-0.000171014
-0.000118073
-5.75202e-05
1.07056e-05
8.6687e-05
0.000170516
0.000262281
0.000362076
0.000469989
0.000586104
0.000710482
0.00084315
0.000984099
0.00113328
0.00129061
0.00145596
0.00162916
0.00180995
0.00199803
0.00219303
0.00239449
0.0026019
0.00281466
0.00303208
0.0032534
0.00347776
0.00370425
0.00393188
0.00415963
0.00438636
0.00461093
0.00483212
0.00504867
0.00525931
0.00546276
0.00565772
0.00584294
0.00601721
0.00617934
0.00632825
0.00646291
0.00658238
0.00668587
0.00677267
0.00684224
0.00689417
0.00692821
0.00694427
0.00694242
0.00692291
0.00688615
0.0068327
0.00676328
0.00667877
0.00658014
0.00646852
0.0063451
0.00621118
0.00606812
0.0059173
0.00576016
0.00559811
0.00543257
0.00526493
0.00509652
0.0049286
0.00476238
0.00459889
0.00443909
0.00428455
0.00413674
0.00398616
0.00382341
0.00191905
0.00162078
0.00137738
0.0011696
0.000976054
0.000797339
0.000634222
0.00048589
0.000351543
0.000230511
0.00012215
2.58372e-05
-5.9017e-05
-0.000132976
-0.000196569
-0.000250284
-0.000294565
-0.000329813
-0.000356389
-0.000374607
-0.000384737
-0.00038701
-0.000381616
-0.000368696
-0.000348352
-0.000320647
-0.000285601
-0.000243199
-0.000193407
-0.000136166
-7.13993e-05
9.93035e-07
8.11258e-05
0.000169116
0.000265084
0.000369152
0.000481435
0.000602026
0.000730985
0.000868338
0.00101408
0.00116816
0.0013305
0.00150095
0.0016793
0.00186528
0.00205855
0.00225869
0.0024652
0.0026775
0.00289493
0.00311672
0.00334204
0.00356998
0.00379955
0.0040297
0.00425929
0.00448715
0.00471203
0.00493263
0.00514763
0.0053557
0.0055555
0.00574571
0.00592505
0.00609228
0.00624622
0.00638577
0.00650994
0.00661784
0.0067087
0.0067819
0.00683696
0.00687356
0.00689155
0.00689096
0.00687198
0.00683498
0.0067805
0.00670923
0.00662202
0.00651985
0.00640383
0.00627518
0.00613519
0.00598526
0.00582679
0.00566124
0.00549008
0.00531476
0.00513671
0.00495731
0.00477789
0.00459969
0.00442382
0.00425125
0.00408375
0.00392287
0.00375819
0.00357937
0.00196352
0.00164775
0.00139046
0.00117129
0.000967492
0.000779684
0.000608615
0.000453365
0.000313015
0.000186788
7.39329e-05
-2.62839e-05
-0.000114556
-0.000191539
-0.000257847
-0.000314047
-0.00036065
-0.000398123
-0.000426881
-0.000447292
-0.000459667
-0.000464273
-0.000461326
-0.00045099
-0.000433377
-0.000408556
-0.000376554
-0.000337357
-0.000290927
-0.000237195
-0.000176069
-0.000107428
-3.11335e-05
5.29604e-05
0.000145007
0.000245157
0.000353558
0.000470336
0.000595588
0.00072938
0.000871744
0.00102268
0.00118214
0.00135002
0.00152615
0.0017103
0.00190215
0.0021013
0.0023073
0.00251959
0.0027375
0.00296031
0.00318719
0.00341723
0.00364943
0.00388272
0.00411597
0.00434795
0.0045774
0.00480297
0.00502329
0.00523697
0.00544262
0.00563885
0.0058243
0.00599766
0.00615767
0.00630315
0.00643302
0.0065463
0.00664214
0.00671985
0.00677884
0.00681875
0.00683935
0.00684061
0.00682265
0.00678582
0.0067306
0.00665766
0.00656783
0.00646209
0.00634156
0.00620744
0.00606108
0.00590386
0.00573725
0.00556274
0.00538185
0.00519609
0.00500694
0.00481585
0.00462421
0.00443334
0.0042444
0.00405847
0.00387743
0.00370301
0.00352382
0.00332861
0.00198767
0.00165482
0.00138397
0.00115363
0.000939769
0.000742999
0.000564059
0.000401926
0.000255568
0.000124097
6.65289e-06
-9.75967e-05
-0.000189444
-0.000269636
-0.000338864
-0.000397767
-0.000446928
-0.000486872
-0.000518074
-0.000540945
-0.00055584
-0.000563055
-0.00056283
-0.000555347
-0.000540728
-0.00051905
-0.000490346
-0.000454602
-0.000411772
-0.000361775
-0.000304501
-0.000239807
-0.000167526
-8.74845e-05
5.01383e-07
9.66152e-05
0.000201037
0.000313928
0.000435426
0.000565639
0.000704643
0.000852481
0.00100915
0.00117458
0.00134866
0.00153116
0.00172183
0.0019203
0.00212613
0.00233879
0.00255765
0.00278198
0.00301097
0.00324371
0.00347921
0.00371638
0.00395405
0.00419099
0.00442589
0.00465735
0.00488397
0.00510428
0.00531682
0.00552014
0.0057128
0.0058934
0.00606058
0.00621309
0.00634975
0.00646948
0.00657133
0.00665452
0.00671838
0.00676246
0.00678645
0.00679024
0.00677392
0.00673776
0.0066822
0.00660789
0.00651564
0.00640642
0.00628133
0.00614161
0.00598862
0.00582379
0.00564861
0.00546464
0.00527346
0.00507663
0.00487572
0.00467224
0.00446769
0.00426345
0.00406078
0.00386083
0.00366566
0.00347718
0.003283
0.00307096
0.0019901
0.0016406
0.00135651
0.00111523
0.000891505
0.000685924
0.000499224
0.000330271
0.00017792
4.1176e-05
-8.0924e-05
-0.00018931
-0.000284866
-0.000368422
-0.000440749
-0.000502556
-0.000554495
-0.00059715
-0.000631048
-0.000656646
-0.000674332
-0.000684432
-0.000687208
-0.000682855
-0.000671508
-0.000653252
-0.000628122
-0.000596103
-0.000557138
-0.000511131
-0.000457953
-0.000397435
-0.000329383
-0.000253595
-0.000169854
-7.79456e-05
2.23471e-05
0.000131225
0.000248867
0.000375427
0.000511027
0.000655754
0.000809651
0.000972699
0.00114481
0.00132583
0.0015155
0.00171352
0.00191946
0.00213283
0.00235302
0.00257933
0.00281095
0.00304698
0.0032864
0.00352814
0.00377101
0.00401373
0.00425496
0.00449326
0.00472715
0.00495513
0.00517566
0.00538719
0.00558821
0.00577722
0.00595277
0.0061135
0.00625813
0.00638546
0.00649447
0.00658423
0.00665401
0.00670323
0.00673152
0.00673868
0.00672472
0.00668985
0.00663449
0.00655922
0.00646485
0.00635232
0.00622274
0.00607738
0.0059176
0.00574489
0.00556079
0.00536692
0.00516492
0.00495644
0.00474313
0.0045266
0.00430843
0.00409011
0.00387301
0.00365837
0.00344843
0.0032453
0.00303558
0.00280617
0.00196946
0.00160372
0.0013067
0.00105475
0.00082137
0.000607152
0.000412816
0.000237119
7.88067e-05
-6.32197e-05
-0.000190021
-0.000302623
-0.000401996
-0.000489052
-0.000564638
-0.000629539
-0.000684468
-0.000730068
-0.000766912
-0.000795498
-0.000816247
-0.000829512
-0.000835574
-0.000834642
-0.000826862
-0.000812328
-0.000791075
-0.000763079
-0.000728274
-0.000686546
-0.000637742
-0.000581669
-0.000518106
-0.000446818
-0.000367559
-0.000280077
-0.000184118
-7.94395e-05
3.4185e-05
0.000156956
0.000289042
0.000430582
0.000581665
0.000742318
0.0009125
0.00109209
0.00128089
0.00147862
0.0016849
0.00189927
0.00212113
0.00234982
0.00258453
0.00282437
0.00306834
0.00331532
0.00356413
0.00381344
0.00406187
0.00430795
0.00455014
0.00478686
0.00501649
0.00523741
0.005448
0.00564667
0.00583186
0.0060021
0.00615597
0.0062922
0.0064096
0.00650716
0.00658402
0.0066395
0.00667313
0.00668461
0.00667388
0.00664108
0.00658656
0.00651088
0.0064148
0.00629926
0.00616537
0.00601441
0.00584778
0.005667
0.0054737
0.00526953
0.00505623
0.00483555
0.00460923
0.00437898
0.0041465
0.0039134
0.00368114
0.00345109
0.0032257
0.00300726
0.00278135
0.00253389
0.00192443
0.00154287
0.00123325
0.000970877
0.000728075
0.000505401
0.000303562
0.00012121
-4.30173e-05
-0.000190317
-0.000321846
-0.000438722
-0.000542001
-0.000632678
-0.000711677
-0.000779854
-0.00083798
-0.000886752
-0.000926788
-0.000958625
-0.000982713
-0.00099943
-0.00100907
-0.00101187
-0.00100797
-0.000997486
-0.000980436
-0.000956793
-0.000926474
-0.000889347
-0.000845235
-0.00079392
-0.000735152
-0.000668665
-0.00059418
-0.000511405
-0.000420046
-0.000319813
-0.000210434
-9.16571e-05
3.67394e-05
0.000174943
0.000323094
0.00048127
0.000649477
0.000827644
0.00101562
0.00121316
0.00141993
0.00163549
0.00185931
0.00209072
0.00232894
0.00257308
0.00282214
0.00307501
0.00333046
0.00358717
0.00384368
0.0040985
0.00435001
0.00459656
0.00483646
0.00506799
0.00528944
0.00549909
0.00569528
0.0058764
0.00604092
0.00618742
0.00631461
0.00642132
0.00650657
0.00656957
0.00660972
0.00662664
0.00662015
0.00659033
0.00653745
0.00646203
0.00636479
0.00624666
0.00610875
0.00595234
0.00577888
0.00558994
0.0053872
0.00517241
0.00494739
0.00471399
0.00447407
0.00422945
0.00398196
0.00373334
0.00348517
0.00323895
0.00299735
0.00276287
0.00252003
0.00225373
0.00185373
0.00145677
0.00113489
0.000862364
0.000610361
0.000379416
0.000170217
-1.86889e-05
-0.000188769
-0.000341315
-0.000477581
-0.000598774
-0.000706039
-0.000800452
-0.000883014
-0.000954642
-0.00101617
-0.00106834
-0.00111181
-0.00114717
-0.00117488
-0.00119534
-0.00120888
-0.00121573
-0.00121606
-0.00120997
-0.00119748
-0.00117854
-0.00115307
-0.00112091
-0.00108185
-0.00103565
-0.00098204
-0.000920711
-0.00085135
-0.000773626
-0.000687197
-0.000591727
-0.000486891
-0.000372384
-0.000247932
-0.000113292
3.17288e-05
0.000187262
0.000353368
0.000530025
0.000717132
0.000914496
0.00112183
0.00133874
0.00156471
0.00179911
0.00204119
0.00229006
0.00254474
0.00280409
0.00306688
0.00333174
0.00359721
0.00386171
0.00412358
0.0043811
0.00463247
0.0048759
0.00510954
0.00533157
0.00554021
0.0057337
0.00591038
0.00606868
0.00620716
0.00632452
0.00641963
0.00649156
0.00653959
0.0065632
0.00656214
0.00653637
0.00648609
0.00641176
0.00631405
0.00619388
0.00605235
0.00589076
0.0057106
0.00551349
0.00530118
0.0050755
0.00483838
0.00459178
0.00433769
0.00407806
0.00381485
0.00354995
0.00328509
0.00302189
0.00276327
0.00251195
0.00225134
0.00196526
0.00175613
0.0013442
0.00101038
0.000727978
0.000467003
0.000227978
1.15707e-05
-0.000183775
-0.00035963
-0.000517384
-0.000658385
-0.000783932
-0.00089526
-0.000993522
-0.00107979
-0.00115504
-0.00122017
-0.00127597
-0.00132313
-0.00136227
-0.00139389
-0.00141842
-0.00143618
-0.00144744
-0.00145236
-0.00145104
-0.00144349
-0.00142966
-0.00140944
-0.00138264
-0.00134905
-0.00130838
-0.00126034