/*--------------------------------*- C++ -*----------------------------------*\
| =========                 |                                                 |
| \\      /  F ield         | OpenFOAM: The Open Source CFD Toolbox           |
|  \\    /   O peration     | Version:  2512                                  |
|   \\  /    A nd           | Website:  www.openfoam.com                      |
|    \\/     M anipulation  |                                                 |
\*---------------------------------------------------------------------------*/
FoamFile
{
    version     2.0;
    format      ascii;
    arch        "LSB;label=32;scalar=64";
    class       surfaceScalarField;
    location    "0.44";
    object      phi;
}
// * * * * * * * * * * * * * * * * * * * * * * * * * * * * * * * * * * * * * //

dimensions      [0 3 -1 0 0 0 0];

oriented        oriented;

internalField   nonuniform List<scalar> 
19800
(
7.49096e-11
-7.49473e-11
2.2969e-10
-1.54787e-10
3.80204e-10
-1.5051e-10
4.73776e-10
-9.35829e-11
4.83386e-10
-9.61294e-12
3.96271e-10
8.71162e-11
2.0823e-10
1.88044e-10
-7.9869e-11
2.88099e-10
-4.64174e-10
3.84308e-10
-9.39109e-10
4.74942e-10
-1.49817e-09
5.59052e-10
-2.13435e-09
6.36181e-10
-2.84052e-09
7.06163e-10
-3.60958e-09
7.69055e-10
-4.43461e-09
8.25035e-10
-5.30896e-09
8.74357e-10
-6.22629e-09
9.17324e-10
-7.18057e-09
9.54277e-10
-8.16613e-09
9.85562e-10
-9.17764e-09
1.01151e-09
-1.021e-08
1.03242e-09
-1.12586e-08
1.04859e-09
-1.23189e-08
1.06031e-09
-1.33868e-08
1.06783e-09
-1.44581e-08
1.07134e-09
-1.55291e-08
1.07103e-09
-1.65962e-08
1.06707e-09
-1.76557e-08
1.05957e-09
-1.87044e-08
1.04863e-09
-1.97387e-08
1.03434e-09
-2.07555e-08
1.01675e-09
-2.17513e-08
9.9588e-10
-2.27231e-08
9.71746e-10
-2.36674e-08
9.44358e-10
-2.45812e-08
9.13719e-10
-2.5461e-08
8.79822e-10
-2.63036e-08
8.42651e-10
-2.71058e-08
8.02187e-10
-2.78642e-08
7.58426e-10
-2.85756e-08
7.11377e-10
-2.92367e-08
6.61058e-10
-2.98442e-08
6.07509e-10
-3.0395e-08
5.50774e-10
-3.08859e-08
4.90924e-10
-3.13139e-08
4.28058e-10
-3.16762e-08
3.62295e-10
-3.197e-08
2.93792e-10
-3.21928e-08
2.22737e-10
-3.23421e-08
1.49339e-10
-3.24159e-08
7.38499e-11
-3.24125e-08
-3.44483e-12
-3.23302e-08
-8.22384e-11
-3.21681e-08
-1.62181e-10
-3.19252e-08
-2.4289e-10
-3.16012e-08
-3.23959e-10
-3.11963e-08
-4.0495e-10
-3.07109e-08
-4.8539e-10
-3.01461e-08
-5.64798e-10
-2.95034e-08
-6.42672e-10
-2.87849e-08
-7.18479e-10
-2.79932e-08
-7.9169e-10
-2.71315e-08
-8.61773e-10
-2.62033e-08
-9.28187e-10
-2.52129e-08
-9.90397e-10
-2.4165e-08
-1.04789e-09
-2.30648e-08
-1.10016e-09
-2.19181e-08
-1.14673e-09
-2.0731e-08
-1.18713e-09
-1.951e-08
-1.22097e-09
-1.82621e-08
-1.24787e-09
-1.69947e-08
-1.26749e-09
-1.57151e-08
-1.27957e-09
-1.44312e-08
-1.28389e-09
-1.31509e-08
-1.28028e-09
-1.18823e-08
-1.26865e-09
-1.06333e-08
-1.24897e-09
-9.41201e-09
-1.22127e-09
-8.22636e-09
-1.18566e-09
-7.08404e-09
-1.14232e-09
-5.99256e-09
-1.09148e-09
-4.95909e-09
-1.03347e-09
-3.99043e-09
-9.68666e-10
-3.09291e-09
-8.9753e-10
-2.27232e-09
-8.20587e-10
-1.53387e-09
-7.38445e-10
-8.82094e-10
-6.51786e-10
-3.20719e-10
-5.61378e-10
1.47384e-10
-4.68099e-10
5.20351e-10
-3.72963e-10
7.97484e-10
-2.77138e-10
9.795e-10
-1.82023e-10
1.06883e-09
-8.93297e-11
1.07009e-09
-1.25759e-12
9.90766e-10
7.93311e-11
8.4233e-10
1.48436e-10
6.41858e-10
2.00473e-10
4.14341e-10
2.27521e-10
1.96236e-10
2.18107e-10
4.00126e-11
1.56225e-10
4.00153e-11
1.56632e-10
-2.31584e-10
3.97102e-10
-3.95261e-10
5.824e-10
-3.35802e-10
6.20464e-10
-1.31641e-10
4.5231e-10
1.58539e-10
4.47958e-11
4.94636e-10
-6.1706e-10
8.49898e-10
-1.53587e-09
1.20692e-09
-2.706e-09
1.55443e-09
-4.1164e-09
1.88535e-09
-5.75264e-09
2.19531e-09
-7.59828e-09
2.48182e-09
-9.63577e-09
2.74366e-09
-1.18472e-08
2.98046e-09
-1.42146e-08
3.19242e-09
-1.67203e-08
3.38014e-09
-1.93475e-08
3.54447e-09
-2.20796e-08
3.68638e-09
-2.4901e-08
3.80698e-09
-2.77968e-08
3.90734e-09
-3.07529e-08
3.98851e-09
-3.37559e-08
4.05152e-09
-3.67929e-08
4.0973e-09
-3.98518e-08
4.12673e-09
-4.2921e-08
4.14056e-09
-4.59894e-08
4.13945e-09
-4.90463e-08
4.12397e-09
-5.20813e-08
4.09458e-09
-5.50843e-08
4.05167e-09
-5.80455e-08
3.99553e-09
-6.09552e-08
3.92638e-09
-6.38036e-08
3.84437e-09
-6.65815e-08
3.74959e-09
-6.92792e-08
3.64208e-09
-7.18874e-08
3.52189e-09
-7.43965e-08
3.389e-09
-7.67973e-08
3.24342e-09
-7.90803e-08
3.08517e-09
-8.12361e-08
2.91425e-09
-8.32555e-08
2.73074e-09
-8.51292e-08
2.53474e-09
-8.68481e-08
2.32643e-09
-8.84034e-08
2.10605e-09
-8.97863e-08
1.87392e-09
-9.09888e-08
1.63045e-09
-9.20026e-08
1.37616e-09
-9.28205e-08
1.11165e-09
-9.34354e-08
8.37665e-10
-9.38411e-08
5.55051e-10
-9.4032e-08
2.64771e-10
-9.40034e-08
-3.20775e-11
-9.37513e-08
-3.3428e-10
-9.3273e-08
-6.40513e-10
-9.25666e-08
-9.49325e-10
-9.16314e-08
-1.25915e-09
-9.0468e-08
-1.56834e-09
-8.90783e-08
-1.87514e-09
-8.74654e-08
-2.1777e-09
-8.56339e-08
-2.47413e-09
-8.35899e-08
-2.76248e-09
-8.13408e-08
-3.04076e-09
-7.88956e-08
-3.30696e-09
-7.62647e-08
-3.55908e-09
-7.346e-08
-3.79515e-09
-7.04947e-08
-4.01323e-09
-6.73834e-08
-4.21146e-09
-6.4142e-08
-4.38806e-09
-6.07878e-08
-4.54137e-09
-5.73389e-08
-4.66986e-09
-5.38146e-08
-4.77215e-09
-5.02351e-08
-4.84706e-09
-4.66211e-08
-4.89356e-09
-4.29941e-08
-4.91085e-09
-3.9376e-08
-4.89837e-09
-3.57889e-08
-4.85577e-09
-3.2255e-08
-4.78295e-09
-2.87962e-08
-4.68007e-09
-2.54343e-08
-4.54756e-09
-2.21905e-08
-4.3861e-09
-1.90853e-08
-4.19665e-09
-1.61384e-08
-3.98042e-09
-1.33681e-08
-3.73891e-09
-1.07917e-08
-3.4739e-09
-8.42488e-09
-3.18745e-09
-6.28141e-09
-2.88192e-09
-4.37321e-09
-2.55998e-09
-2.7099e-09
-2.22468e-09
-1.29851e-09
-1.87949e-09
-1.43105e-10
-1.52838e-09
7.55701e-10
-1.17595e-09
1.40133e-09
-8.27648e-10
1.80208e-09
-4.90065e-10
1.97216e-09
-1.71336e-10
1.93324e-09
1.18247e-10
1.71631e-09
3.65374e-10
1.36417e-09
5.52619e-10
9.34272e-10
6.57417e-10
5.01145e-10
6.51236e-10
1.55659e-10
5.01722e-10
1.95671e-10
1.52929e-10
-3.8451e-10
3.40705e-10
-5.83039e-10
3.99536e-10
-3.94636e-10
2.20401e-10
4.74958e-11
-2.69779e-10
6.48722e-10
-1.11536e-09
1.34023e-09
-2.33862e-09
2.07316e-09
-3.94553e-09
2.81383e-09
-5.93045e-09
3.53934e-09
-8.27956e-09
4.23444e-09
-1.09735e-08
4.88925e-09
-1.39893e-08
5.49766e-09
-1.7302e-08
6.0563e-09
-2.08851e-08
6.56363e-09
-2.47122e-08
7.01952e-09
-2.87568e-08
7.42468e-09
-3.29928e-08
7.78048e-09
-3.7395e-08
8.08865e-09
-4.19392e-08
8.35118e-09
-4.6602e-08
8.57012e-09
-5.1361e-08
8.74755e-09
-5.6195e-08
8.88547e-09
-6.10835e-08
8.98578e-09
-6.60069e-08
9.05019e-09
-7.09466e-08
9.08029e-09
-7.58846e-08
9.07743e-09
-8.08035e-08
9.04279e-09
-8.56863e-08
8.97738e-09
-9.05166e-08
8.88198e-09
-9.52783e-08
8.75726e-09
-9.99556e-08
8.60369e-09
-1.04533e-07
8.42164e-09
-1.08995e-07
8.21135e-09
-1.13326e-07
7.97298e-09
-1.1751e-07
7.70663e-09
-1.21534e-07
7.41237e-09
-1.2538e-07
7.09026e-09
-1.29036e-07
6.74039e-09
-1.32484e-07
6.3629e-09
-1.35712e-07
5.95798e-09
-1.38703e-07
5.52595e-09
-1.41444e-07
5.06725e-09
-1.4392e-07
4.58248e-09
-1.46118e-07
4.07239e-09
-1.48026e-07
3.53795e-09
-1.4963e-07
2.98032e-09
-1.50919e-07
2.40091e-09
-1.51883e-07
1.80133e-09
-1.52511e-07
1.18349e-09
-1.52796e-07
5.49506e-10
-1.5273e-07
-9.82263e-11
-1.52307e-07
-7.57052e-10
-1.51524e-07
-1.42407e-09
-1.50377e-07
-2.09615e-09
-1.48866e-07
-2.76991e-09
-1.46993e-07
-3.44177e-09
-1.4476e-07
-4.10796e-09
-1.42173e-07
-4.76454e-09
-1.3924e-07
-5.40743e-09
-1.3597e-07
-6.03244e-09
-1.32375e-07
-6.63534e-09
-1.2847e-07
-7.21184e-09
-1.24272e-07
-7.75767e-09
-1.19798e-07
-8.26862e-09
-1.15071e-07
-8.74059e-09
-1.10113e-07
-9.16962e-09
-1.04949e-07
-9.55192e-09
-9.96063e-08
-9.88399e-09
-9.41136e-08
-1.01626e-08
-8.85009e-08
-1.03848e-08
-8.27999e-08
-1.05481e-08
-7.70431e-08
-1.06503e-08
-7.12641e-08
-1.06899e-08
-6.5497e-08
-1.06655e-08
-5.97763e-08
-1.05765e-08
-5.41365e-08
-1.04227e-08
-4.86121e-08
-1.02045e-08
-4.32368e-08
-9.92284e-09
-3.80437e-08
-9.57922e-09
-3.30646e-08
-9.17575e-09
-2.83299e-08
-8.71511e-09
-2.38683e-08
-8.20057e-09
-1.97061e-08
-7.63603e-09
-1.58676e-08
-7.02601e-09
-1.23738e-08
-6.3757e-09
-9.24275e-09
-5.69101e-09
-6.4888e-09
-4.97864e-09
-4.1221e-09
-4.2462e-09
-2.14809e-09
-3.50239e-09
-5.66781e-10
-2.75725e-09
6.28102e-10
-2.02253e-09
1.45022e-09
-1.31219e-09
1.92196e-09
-6.43076e-10
2.0761e-09
-3.58742e-11
1.95773e-09
4.83749e-10
1.62661e-09
8.83727e-10
1.15943e-09
1.12458e-09
6.51496e-10
1.15918e-09
2.17335e-10
9.35885e-10
4.13002e-10
9.69381e-11
-4.81454e-10
1.38124e-10
-6.24224e-10
-4.06456e-11
-2.15867e-10
-5.5158e-10
5.58432e-10
-1.47143e-09
1.56857e-09
-2.84819e-09
2.71699e-09
-4.70702e-09
3.93199e-09
-7.05534e-09
5.16216e-09
-9.88724e-09
6.37125e-09
-1.31869e-08
7.53415e-09
-1.69317e-08
8.63395e-09
-2.10937e-08
9.65971e-09
-2.56423e-08
1.06049e-08
-3.05448e-08
1.14661e-08
-3.57676e-08
1.22424e-08
-4.12771e-08
1.29341e-08
-4.70398e-08
1.35431e-08
-5.3023e-08
1.40718e-08
-5.91948e-08
1.45231e-08
-6.55247e-08
1.49e-08
-7.1983e-08
1.52058e-08
-7.85411e-08
1.54436e-08
-8.51719e-08
1.56165e-08
-9.18489e-08
1.57272e-08
-9.85469e-08
1.57783e-08
-1.05241e-07
1.57719e-08
-1.11909e-07
1.57101e-08
-1.18526e-07
1.55945e-08
-1.2507e-07
1.54264e-08
-1.3152e-07
1.5207e-08
-1.37854e-07
1.49372e-08
-1.44049e-07
1.46175e-08
-1.50086e-07
1.42484e-08
-1.55944e-07
1.38303e-08
-1.61601e-07
1.33635e-08
-1.67036e-07
1.28481e-08
-1.72231e-07
1.22844e-08
-1.77163e-07
1.16725e-08
-1.81813e-07
1.10129e-08
-1.86161e-07
1.03059e-08
-1.90187e-07
9.55225e-09
-1.93872e-07
8.75278e-09
-1.97199e-07
7.90862e-09
-2.00147e-07
7.02117e-09
-2.02702e-07
6.09218e-09
-2.04845e-07
5.12374e-09
-2.06562e-07
4.11834e-09
-2.0784e-07
3.07885e-09
-2.08665e-07
2.00857e-09
-2.09027e-07
9.11233e-10
-2.08916e-07
-2.09011e-10
-2.08325e-07
-1.34759e-09
-2.0725e-07
-2.49949e-09
-2.05687e-07
-3.65932e-09
-2.03635e-07
-4.82129e-09
-2.01098e-07
-5.97929e-09
-1.98079e-07
-7.12685e-09
-1.94586e-07
-8.25725e-09
-1.9063e-07
-9.36358e-09
-1.86224e-07
-1.04387e-08
-1.81384e-07
-1.14754e-08
-1.76129e-07
-1.24664e-08
-1.70482e-07
-1.34046e-08
-1.64468e-07
-1.42827e-08
-1.58115e-07
-1.50938e-08
-1.51453e-07
-1.58313e-08
-1.44517e-07
-1.64887e-08
-1.3734e-07
-1.70602e-08
-1.29963e-07
-1.75402e-08
-1.22424e-07
-1.7924e-08
-1.14765e-07
-1.82071e-08
-1.07029e-07
-1.83862e-08
-9.92604e-08
-1.84582e-08
-9.15045e-08
-1.84214e-08
-8.38066e-08
-1.82744e-08
-7.62121e-08
-1.80172e-08
-6.87663e-08
-1.76503e-08
-6.15137e-08
-1.71755e-08
-5.44976e-08
-1.65953e-08
-4.77598e-08
-1.59135e-08
-4.13404e-08
-1.51346e-08
-3.52766e-08
-1.42643e-08
-2.96031e-08
-1.33095e-08
-2.43513e-08
-1.22779e-08
-1.95485e-08
-1.11784e-08
-1.52181e-08
-1.00215e-08
-1.13782e-08
-8.81854e-09
-8.04163e-09
-7.58278e-09
-5.21488e-09
-6.32913e-09
-2.8974e-09
-5.07473e-09
-1.08057e-09
-3.83937e-09
2.53464e-10
-2.64623e-09
1.13314e-09
-1.52274e-09
1.59902e-09
-5.01756e-10
1.70565e-09
3.77113e-10
1.52337e-09
1.066e-09
1.14042e-09
1.50754e-09
6.64935e-10
1.63467e-09
2.28307e-10
1.37251e-09
6.41309e-10
1.30544e-11
-4.94509e-10
-1.5381e-10
-4.57354e-10
-6.47956e-10
2.78284e-10
-1.57396e-09
1.48443e-09
-3.00429e-09
2.9989e-09
-4.9849e-09
4.69761e-09
-7.53991e-09
6.487e-09
-1.06758e-08
8.29808e-09
-1.43854e-08
1.00808e-08
-1.86506e-08
1.17994e-08
-2.34458e-08
1.34291e-08
-2.87395e-08
1.49534e-08
-3.44963e-08
1.63617e-08
-4.06786e-08
1.76484e-08
-4.7247e-08
1.88108e-08
-5.4162e-08
1.98491e-08
-6.13839e-08
2.07651e-08
-6.88737e-08
2.15616e-08
-7.65931e-08
2.22424e-08
-8.45049e-08
2.28118e-08
-9.25731e-08
2.3274e-08
-1.00763e-07
2.36334e-08
-1.09041e-07
2.38943e-08
-1.17374e-07
2.40605e-08
-1.25731e-07
2.41357e-08
-1.34083e-07
2.41231e-08
-1.42398e-07
2.40255e-08
-1.50649e-07
2.38453e-08
-1.58807e-07
2.35845e-08
-1.66845e-07
2.32449e-08
-1.74735e-07
2.28277e-08
-1.82452e-07
2.2334e-08
-1.89968e-07
2.17644e-08
-1.97257e-07
2.11197e-08
-2.04294e-07
2.04003e-08
-2.11052e-07
1.96066e-08
-2.17507e-07
1.8739e-08
-2.23633e-07
1.77981e-08
-2.29404e-07
1.67845e-08
-2.34797e-07
1.56989e-08
-2.39787e-07
1.45426e-08
-2.44352e-07
1.33169e-08
-2.48467e-07
1.20238e-08
-2.52111e-07
1.06654e-08
-2.55263e-07
9.24455e-09
-2.57904e-07
7.76453e-09
-2.60015e-07
6.22918e-09
-2.61579e-07
4.64299e-09
-2.62582e-07
3.01102e-09
-2.63009e-07
1.33897e-09
-2.62852e-07
-3.66812e-10
-2.621e-07
-2.09936e-09
-2.60748e-07
-3.85109e-09
-2.58794e-07
-5.61383e-09
-2.56236e-07
-7.37885e-09
-2.53078e-07
-9.1369e-09
-2.49327e-07
-1.08783e-08
-2.44991e-07
-1.25929e-08
-2.40085e-07
-1.42704e-08
-2.34623e-07
-1.59e-08
-2.28628e-07
-1.7471e-08
-2.22122e-07
-1.89726e-08
-2.15132e-07
-2.03938e-08
-2.07691e-07
-2.17241e-08
-1.99831e-07
-2.29532e-08
-1.91592e-07
-2.4071e-08
-1.83012e-07
-2.50681e-08
-1.74137e-07
-2.59357e-08
-1.65011e-07
-2.66655e-08
-1.55685e-07
-2.72504e-08
-1.46208e-07
-2.7684e-08
-1.36633e-07
-2.79611e-08
-1.27014e-07
-2.80774e-08
-1.17405e-07
-2.80302e-08
-1.07862e-07
-2.78176e-08
-9.84397e-08
-2.74395e-08
-8.91931e-08
-2.68969e-08
-8.01761e-08
-2.61924e-08
-7.14415e-08
-2.533e-08
-6.30398e-08
-2.43152e-08
-5.50192e-08
-2.31552e-08
-4.74251e-08
-2.18585e-08
-4.02992e-08
-2.04354e-08
-3.36792e-08
-1.88978e-08
-2.75981e-08
-1.72595e-08
-2.20838e-08
-1.55358e-08
-1.7158e-08
-1.37444e-08
-1.28357e-08
-1.1905e-08
-9.12465e-09
-1.00402e-08
-6.02405e-09
-8.17532e-09
-3.52377e-09
-6.33965e-09
-1.60314e-09
-4.56686e-09
-2.29691e-10
-2.89618e-09
6.42187e-10
-1.37363e-09
1.07281e-09
-5.35103e-11
1.13881e-09
1e-09
9.35074e-10
1.7113e-09
5.77144e-10
1.99261e-09
2.05667e-10
1.74399e-09
8.4698e-10
-8.49738e-11
-4.09541e-10
-4.97616e-10
-4.47128e-11
-1.35902e-09
1.13969e-09
-2.75836e-09
2.88378e-09
-4.75808e-09
4.99862e-09
-7.39754e-09
7.33707e-09
-1.06964e-08
9.78585e-09
-1.46579e-08
1.22595e-08
-1.92718e-08
1.46947e-08
-2.45175e-08
1.70451e-08
-3.03662e-08
1.92778e-08
-3.67828e-08
2.137e-08
-4.37281e-08
2.33071e-08
-5.11601e-08
2.50803e-08
-5.90348e-08
2.66855e-08
-6.73075e-08
2.81219e-08
-7.59333e-08
2.93909e-08
-8.48678e-08
3.04961e-08
-9.40671e-08
3.14417e-08
-1.03488e-07
3.22331e-08
-1.1309e-07
3.28756e-08
-1.22831e-07
3.33749e-08
-1.32674e-07
3.37364e-08
-1.42578e-07
3.39652e-08
-1.52508e-07
3.4066e-08
-1.62429e-07
3.40431e-08
-1.72303e-07
3.39004e-08
-1.82099e-07
3.36409e-08
-1.91782e-07
3.32676e-08
-2.0132e-07
3.27826e-08
-2.1068e-07
3.21879e-08
-2.19831e-07
3.14848e-08
-2.28741e-07
3.06746e-08
-2.37379e-07
2.97581e-08
-2.45715e-07
2.87362e-08
-2.53718e-07
2.76095e-08
-2.61358e-07
2.63788e-08
-2.68605e-07
2.5045e-08
-2.7543e-07
2.3609e-08
-2.81803e-07
2.20723e-08
-2.87697e-07
2.04366e-08
-2.93084e-07
1.8704e-08
-2.97938e-07
1.68773e-08
-3.02232e-07
1.49599e-08
-3.05943e-07
1.29556e-08
-3.09048e-07
1.08694e-08
-3.11525e-07
8.70667e-09
-3.13356e-07
6.4738e-09
-3.14523e-07
4.17798e-09
-3.15011e-07
1.82726e-09
-3.14809e-07
-5.69443e-10
-3.13906e-07
-3.00236e-09
-3.12296e-07
-5.46087e-09
-3.09976e-07
-7.93357e-09
-3.06947e-07
-1.04083e-08
-3.03212e-07
-1.28722e-08
-2.98778e-07
-1.53118e-08
-2.93658e-07
-1.7713e-08
-2.87867e-07
-2.00615e-08
-2.81424e-07
-2.23426e-08
-2.74354e-07
-2.45412e-08
-2.66684e-07
-2.66425e-08
-2.58447e-07
-2.86314e-08
-2.49677e-07
-3.04933e-08
-2.40417e-07
-3.2214e-08
-2.30708e-07
-3.37796e-08
-2.20599e-07
-3.51772e-08
-2.1014e-07
-3.63945e-08
-1.99385e-07
-3.74205e-08
-1.88391e-07
-3.82451e-08
-1.77215e-07
-3.88596e-08
-1.65919e-07
-3.92567e-08
-1.54566e-07
-3.94309e-08
-1.43218e-07
-3.93781e-08
-1.3194e-07
-3.90961e-08
-1.20795e-07
-3.85845e-08
-1.09847e-07
-3.78449e-08
-9.9158e-08
-3.6881e-08
-8.87896e-08
-3.56984e-08
-7.88e-08
-3.43048e-08
-6.92449e-08
-3.27102e-08
-6.01767e-08
-3.09267e-08
-5.16436e-08
-2.89685e-08
-4.3689e-08
-2.68524e-08
-3.63511e-08
-2.45974e-08
-2.96617e-08
-2.22251e-08
-2.36461e-08
-1.976e-08
-1.83216e-08
-1.72295e-08
-1.36972e-08
-1.46645e-08
-9.77259e-09
-1.20999e-08
-6.53698e-09
-9.57526e-09
-3.96822e-09
-7.13562e-09
-2.03163e-09
-4.83276e-09
-6.78831e-10
-2.72642e-09
1.53549e-10
-8.85887e-10
5.45272e-10
6.08288e-10
5.94199e-10
1.66238e-09
4.18667e-10
2.16814e-09
1.61535e-10
2.00112e-09
1.00852e-09
-1.89453e-10
-2.20083e-10
-8.69204e-10
6.35045e-10
-2.13033e-09
2.40082e-09
-4.04184e-09
4.79528e-09
-6.65204e-09
7.60882e-09
-9.99022e-09
1.06753e-08
-1.40687e-08
1.38644e-08
-1.88854e-08
1.70762e-08
-2.44256e-08
2.02349e-08
-3.06649e-08
2.32844e-08
-3.75709e-08
2.61837e-08
-4.5105e-08
2.89041e-08
-5.32243e-08
3.14264e-08
-6.18828e-08
3.37388e-08
-7.10324e-08
3.58351e-08
-8.0624e-08
3.77135e-08
-9.06083e-08
3.93752e-08
-1.00936e-07
4.08237e-08
-1.11558e-07
4.2064e-08
-1.22427e-07
4.31024e-08
-1.33497e-07
4.39452e-08
-1.44721e-07
4.45993e-08
-1.56056e-07
4.50712e-08
-1.67458e-07
4.53674e-08
-1.78886e-07
4.54937e-08
-1.90298e-07
4.54554e-08
-2.01655e-07
4.52574e-08
-2.12918e-07
4.49037e-08
-2.24048e-07
4.43979e-08
-2.35009e-07
4.37429e-08
-2.45762e-07
4.29412e-08
-2.56272e-07
4.19946e-08
-2.66502e-07
4.0905e-08
-2.76417e-07
3.96734e-08
-2.85982e-07
3.83012e-08
-2.95162e-07
3.67893e-08
-3.03922e-07
3.5139e-08
-3.12229e-07
3.33515e-08
-3.20048e-07
3.14284e-08
-3.27347e-07
2.93717e-08
-3.34095e-07
2.71839e-08
-3.40259e-07
2.48681e-08
-3.45809e-07
2.2428e-08
-3.50718e-07
1.98684e-08
-3.54957e-07
1.71946e-08
-3.58501e-07
1.44132e-08
-3.61326e-07
1.15315e-08
-3.6341e-07
8.55814e-09
-3.64735e-07
5.5027e-09
-3.65283e-07
2.37591e-09
-3.65042e-07
-8.10362e-10
-3.64001e-07
-4.04317e-09
-3.62154e-07
-7.30847e-09
-3.59496e-07
-1.05912e-08
-3.56029e-07
-1.38753e-08
-3.51758e-07
-1.71439e-08
-3.4669e-07
-2.03792e-08
-3.4084e-07
-2.35628e-08
-3.34226e-07
-2.6676e-08
-3.26869e-07
-2.96992e-08
-3.18798e-07
-3.2613e-08
-3.10042e-07
-3.53977e-08
-3.0064e-07
-3.80338e-08
-2.90631e-07
-4.05023e-08
-2.80061e-07
-4.27843e-08
-2.68978e-07
-4.4862e-08
-2.57437e-07
-4.67183e-08
-2.45494e-07
-4.83374e-08
-2.3321e-07
-4.97047e-08
-2.20648e-07
-5.08071e-08
-2.07874e-07
-5.16333e-08
-1.94957e-07
-5.21739e-08
-1.81967e-07
-5.24215e-08
-1.68974e-07
-5.23709e-08
-1.56051e-07
-5.20193e-08
-1.43269e-07
-5.13663e-08
-1.307e-07
-5.0414e-08
-1.18414e-07
-4.91671e-08
-1.06479e-07
-4.76333e-08
-9.49608e-08
-4.58227e-08
-8.39226e-08
-4.37484e-08
-7.34229e-08
-4.14264e-08
-6.35157e-08
-3.88757e-08
-5.42499e-08
-3.61181e-08
-4.56684e-08
-3.31789e-08
-3.78072e-08
-3.00864e-08
-3.06946e-08
-2.68726e-08
-2.43507e-08
-2.35734e-08
-1.87862e-08
-2.0229e-08
-1.40018e-08
-1.68844e-08
-9.98699e-09
-1.35901e-08
-6.71938e-09
-1.04032e-08
-4.16363e-09
-7.3885e-09
-2.27044e-09
-4.61961e-09
-9.75542e-10
-2.18079e-09
-1.98532e-10
-1.68716e-10
1.58484e-10
1.30536e-09
2.12828e-10
2.1138e-09
1.04083e-10
2.10988e-09
1.11259e-09
-2.96005e-10
7.59168e-11
-1.25352e-09
1.59256e-09
-2.93289e-09
4.08019e-09
-5.38063e-09
7.24304e-09
-8.62828e-09
1.08565e-08
-1.26925e-08
1.47395e-08
-1.75761e-08
1.8748e-08
-2.32695e-08
2.27696e-08
-2.97524e-08
2.67179e-08
-3.69955e-08
3.05275e-08
-4.49621e-08
3.41503e-08
-5.36097e-08
3.75518e-08
-6.28917e-08
4.07084e-08
-7.27582e-08
4.36053e-08
-8.31573e-08
4.62343e-08
-9.40361e-08
4.85923e-08
-1.05341e-07
5.068e-08
-1.17019e-07
5.25012e-08
-1.29016e-07
5.40614e-08
-1.41281e-07
5.53674e-08
-1.53762e-07
5.64267e-08
-1.66411e-07
5.72473e-08
-1.79176e-07
5.7837e-08
-1.92012e-07
5.82033e-08
-2.04872e-07
5.83533e-08
-2.1771e-07
5.82933e-08
-2.30482e-07
5.80291e-08
-2.43144e-07
5.75658e-08
-2.55653e-07
5.69077e-08
-2.67969e-07
5.60584e-08
-2.80049e-07
5.5021e-08
-2.91852e-07
5.37981e-08
-3.03339e-07
5.23917e-08
-3.14469e-07
5.08035e-08
-3.25203e-07
4.90352e-08
-3.35502e-07
4.70884e-08
-3.45328e-07
4.49646e-08
-3.54642e-07
4.26657e-08
-3.63408e-07
4.01939e-08
-3.71588e-07
3.75521e-08
-3.79148e-07
3.47434e-08
-3.86052e-07
3.17722e-08
-3.92267e-07
2.86435e-08
-3.97762e-07
2.53632e-08
-4.02506e-07
2.19387e-08
-4.06471e-07
1.83782e-08
-4.09631e-07
1.46914e-08
-4.11962e-07
1.08893e-08
-4.13444e-07
6.98416e-09
-4.14057e-07
2.98976e-09
-4.13789e-07
-1.07881e-09
-4.12627e-07
-5.20506e-09
-4.10564e-07
-9.37114e-09
-4.07598e-07
-1.3558e-08
-4.03728e-07
-1.77452e-08
-3.9896e-07
-2.19115e-08
-3.93305e-07
-2.60344e-08
-3.86777e-07
-3.00908e-08
-3.79396e-07
-3.40568e-08
-3.71187e-07
-3.79081e-08
-3.6218e-07
-4.162e-08
-3.5241e-07
-4.51678e-08
-3.41917e-07
-4.85271e-08
-3.30745e-07
-5.16737e-08
-3.18945e-07
-5.45842e-08
-3.06571e-07
-5.7236e-08
-2.93682e-07
-5.96077e-08
-2.8034e-07
-6.16794e-08
-2.66612e-07
-6.34328e-08
-2.52567e-07
-6.48515e-08
-2.38279e-07
-6.59214e-08
-2.23823e-07
-6.66304e-08
-2.09275e-07
-6.69695e-08
-1.94714e-07
-6.6932e-08
-1.80219e-07
-6.65145e-08
-1.65869e-07
-6.57164e-08
-1.51742e-07
-6.45405e-08
-1.37916e-07
-6.29928e-08
-1.24467e-07
-6.10829e-08
-1.11466e-07
-5.88237e-08
-9.89822e-08
-5.62318e-08
-8.70812e-08
-5.33275e-08
-7.58224e-08
-5.01345e-08
-6.52599e-08
-4.66807e-08
-5.5441e-08
-4.29978e-08
-4.64058e-08
-3.91215e-08
-3.81863e-08
-3.50922e-08
-3.08052e-08
-3.09546e-08
-2.42755e-08
-2.67587e-08
-1.85995e-08
-2.25603e-08
-1.37681e-08
-1.84215e-08
-9.75965e-09
-1.44117e-08
-6.53945e-09
-1.06087e-08
-4.05881e-09
-7.10024e-09
-2.2543e-09
-3.98529e-09
-1.0469e-09
-1.37612e-09
-3.41023e-10
5.99477e-10
-2.3317e-11
1.7961e-09
3.88322e-11
2.04773e-09
1.15142e-09
-4.02205e-10
4.78127e-10
-1.6412e-09
2.83156e-09
-3.74763e-09
6.18663e-09
-6.74476e-09
1.02402e-08
-1.06458e-08
1.47575e-08
-1.54532e-08
1.95468e-08
-2.11584e-08
2.44532e-08
-2.77431e-08
2.93543e-08
-3.51798e-08
3.41546e-08
-4.34334e-08
3.87811e-08
-5.24623e-08
4.31791e-08
-6.22196e-08
4.73091e-08
-7.26546e-08
5.11434e-08
-8.37137e-08
5.46644e-08
-9.53413e-08
5.78619e-08
-1.07481e-07
6.07316e-08
-1.20075e-07
6.32739e-08
-1.33066e-07
6.54924e-08
-1.46397e-07
6.73931e-08
-1.60014e-07
6.89836e-08
-1.73859e-07
7.02724e-08
-1.87881e-07
7.12685e-08
-2.02024e-07
7.19808e-08
-2.16239e-07
7.2418e-08
-2.30474e-07
7.25883e-08
-2.4468e-07
7.24991e-08
-2.58808e-07
7.21573e-08
-2.72811e-07
7.15687e-08
-2.86642e-07
7.07386e-08
-3.00255e-07
6.96712e-08
-3.13604e-07
6.83704e-08
-3.26645e-07
6.68391e-08
-3.39333e-07
6.50801e-08
-3.51625e-07
6.30956e-08
-3.63478e-07
6.08877e-08
-3.74848e-07
5.84584e-08
-3.85693e-07
5.58101e-08
-3.95973e-07
5.2945e-08
-4.05645e-07
4.98663e-08
-4.1467e-07
4.65775e-08
-4.2301e-07
4.3083e-08
-4.30626e-07
3.93882e-08
-4.37482e-07
3.54995e-08
-4.43543e-07
3.14246e-08
-4.48777e-07
2.71727e-08
-4.53153e-07
2.2754e-08
-4.56643e-07
1.81808e-08
-4.5922e-07
1.34667e-08
-4.60863e-07
8.62688e-09
-4.61551e-07
3.67845e-09
-4.6127e-07
-1.35995e-09
-4.60007e-07
-6.46799e-09
-4.57755e-07
-1.16237e-08
-4.54509e-07
-1.68036e-08
-4.50271e-07
-2.19828e-08
-4.45048e-07
-2.71351e-08
-4.38849e-07
-3.22329e-08
-4.31692e-07
-3.7248e-08
-4.23598e-07
-4.2151e-08
-4.14594e-07
-4.69124e-08
-4.04712e-07
-5.15019e-08
-3.9399e-07
-5.58894e-08
-3.82472e-07
-6.0045e-08
-3.70207e-07
-6.39393e-08
-3.57247e-07
-6.75435e-08
-3.43653e-07
-7.08303e-08
-3.29487e-07
-7.37734e-08
-3.14818e-07
-7.63486e-08
-2.99718e-07
-7.85334e-08
-2.84261e-07
-8.03079e-08
-2.68528e-07
-8.16547e-08
-2.52599e-07
-8.25594e-08
-2.36558e-07
-8.30106e-08
-2.20489e-07
-8.30003e-08
-2.0448e-07
-8.25241e-08
-1.88615e-07
-8.15816e-08
-1.72979e-07
-8.0176e-08
-1.57657e-07
-7.83148e-08
-1.42731e-07
-7.60095e-08
-1.28278e-07
-7.3276e-08
-1.14375e-07
-7.01347e-08
-1.01093e-07
-6.66103e-08
-8.8495e-08
-6.2732e-08
-7.6642e-08
-5.85337e-08
-6.55855e-08
-5.40543e-08
-5.53697e-08
-4.93373e-08
-4.60303e-08
-4.44316e-08
-3.75933e-08
-3.93916e-08
-3.00745e-08
-3.42776e-08
-2.34784e-08
-2.91564e-08
-1.77981e-08
-2.41019e-08
-1.30137e-08
-1.91961e-08
-9.09222e-09
-1.45301e-08
-5.98696e-09
-1.02055e-08
-3.63671e-09
-6.33555e-09
-1.96538e-09
-3.04745e-09
-8.81499e-10
-4.844e-10
-2.77739e-10
1.19235e-09
-3.05896e-11
1.80057e-09
1.12083e-09
-5.06741e-10
9.84869e-10
-2.02656e-09
4.35137e-09
-4.56222e-09
8.72229e-09
-8.11393e-09
1.37919e-08
-1.2676e-08
1.93196e-08
-1.82354e-08
2.51062e-08
-2.47714e-08
3.09892e-08
-3.22556e-08
3.68385e-08
-4.06524e-08
4.25513e-08
-4.99198e-08
4.80485e-08
-6.00106e-08
5.32699e-08
-7.08732e-08
5.81716e-08
-8.24524e-08
6.27226e-08
-9.46906e-08
6.69027e-08
-1.07529e-07
7.06998e-08
-1.20906e-07
7.41089e-08
-1.34762e-07
7.71298e-08
-1.49036e-07
7.97662e-08
-1.63667e-07
8.20245e-08
-1.78597e-07
8.39131e-08
-1.93766e-07
8.54414e-08
-2.09116e-07
8.66193e-08
-2.24592e-07
8.74569e-08
-2.40138e-07
8.79641e-08
-2.557e-07
8.815e-08
-2.71225e-07
8.80234e-08
-2.86659e-07
8.75918e-08
-3.01953e-07
8.68622e-08
-3.17054e-07
8.58405e-08
-3.31915e-07
8.45318e-08
-3.46485e-07
8.29405e-08
-3.60716e-07
8.10703e-08
-3.74561e-07
7.89244e-08
-3.87971e-07
7.65056e-08
-4.00899e-07
7.38165e-08
-4.13301e-07
7.08598e-08
-4.25129e-07
6.76383e-08
-4.36339e-07
6.41552e-08
-4.46887e-07
6.04143e-08
-4.5673e-07
5.64202e-08
-4.65826e-07
5.21784e-08
-4.74133e-07
4.76955e-08
-4.81613e-07
4.29797e-08
-4.88229e-07
3.80403e-08
-4.93945e-07
3.28884e-08
-4.98727e-07
2.75369e-08
-5.02547e-07
2.20004e-08
-5.05376e-07
1.62955e-08
-5.0719e-07
1.04406e-08
-5.07967e-07
4.45629e-09
-5.07692e-07
-1.63495e-09
-5.06352e-07
-7.80867e-09
-5.03937e-07
-1.40385e-08
-5.00444e-07
-2.02963e-08
-4.95875e-07
-2.65521e-08
-4.90236e-07
-3.27746e-08
-4.83538e-07
-3.89309e-08
-4.75798e-07
-4.49872e-08
-4.67041e-07
-5.09084e-08
-4.57294e-07
-5.66591e-08
-4.46593e-07
-6.22033e-08
-4.34977e-07
-6.7505e-08
-4.22494e-07
-7.25285e-08
-4.09194e-07
-7.72387e-08
-3.95137e-07
-8.16013e-08
-3.80383e-07
-8.55836e-08
-3.65003e-07
-8.91542e-08
-3.49067e-07
-9.22842e-08
-3.32654e-07
-9.49468e-08
-3.15843e-07
-9.71181e-08
-2.98721e-07
-9.87774e-08
-2.81373e-07
-9.99073e-08
-2.63889e-07
-1.00494e-07
-2.46361e-07
-1.00528e-07
-2.2888e-07
-1.00005e-07
-2.1154e-07
-9.89225e-08
-1.9443e-07
-9.72855e-08
-1.77642e-07
-9.51026e-08
-1.61264e-07
-9.23876e-08
-1.45381e-07
-8.91594e-08
-1.30073e-07
-8.54421e-08
-1.15418e-07
-8.12653e-08
-1.01487e-07
-7.66639e-08
-8.83419e-08
-7.16783e-08
-7.60416e-08
-6.63546e-08
-6.46341e-08
-6.07447e-08
-5.41591e-08
-5.49066e-08
-4.46463e-08
-4.89044e-08
-3.61148e-08
-4.28091e-08
-2.85724e-08
-3.66988e-08
-2.20145e-08
-3.06597e-08
-1.64243e-08
-2.47863e-08
-1.17715e-08
-1.9183e-08
-8.01214e-09
-1.39648e-08
-5.08855e-09
-9.25914e-09
-2.92877e-09
-5.20723e-09
-1.44667e-09
-1.96648e-09
-5.42193e-10
2.87874e-10
-1.01847e-10
1.36023e-09
1.01899e-09
-6.08909e-10
1.59378e-09
-2.40621e-09
6.14868e-09
-5.36885e-09
1.16849e-08
-9.47468e-09
1.78977e-08
-1.46991e-08
2.4544e-08
-2.10133e-08
3.14204e-08
-2.83833e-08
3.83593e-08
-3.67699e-08
4.5225e-08
-4.61285e-08
5.19099e-08
-5.64097e-08
5.83297e-08
-6.75599e-08
6.44202e-08
-7.95221e-08
7.01339e-08
-9.22366e-08
7.54371e-08
-1.05642e-07
8.03076e-08
-1.19674e-07
8.4732e-08
-1.34269e-07
8.87045e-08
-1.49364e-07
9.22245e-08
-1.64894e-07
9.52961e-08
-1.80795e-07
9.7926e-08
-1.97006e-07
1.00123e-07
-2.13463e-07
1.01898e-07
-2.30106e-07
1.03262e-07
-2.46875e-07
1.04226e-07
-2.63712e-07
1.04801e-07
-2.80559e-07
1.04997e-07
-2.9736e-07
1.04824e-07
-3.14058e-07
1.0429e-07
-3.30599e-07
1.03404e-07
-3.4693e-07
1.02171e-07
-3.62996e-07
1.00598e-07
-3.78746e-07
9.86907e-08
-3.94128e-07
9.64521e-08
-4.0909e-07
9.38866e-08
-4.23582e-07
9.09973e-08
-4.37553e-07
8.77877e-08
-4.50954e-07
8.42609e-08
-4.63736e-07
8.04204e-08
-4.75851e-07
7.62702e-08
-4.87252e-07
7.18149e-08
-4.97892e-07
6.70604e-08
-5.07727e-07
6.20132e-08
-5.16713e-07
5.66814e-08
-5.24808e-07
5.10749e-08
-5.31972e-07
4.52049e-08
-5.38169e-07
3.90846e-08
-5.43361e-07
3.27295e-08
-5.47518e-07
2.61569e-08
-5.50609e-07
1.93865e-08
-5.52608e-07
1.24401e-08
-5.53494e-07
5.3421e-09
-5.53248e-07
-1.88105e-09
-5.51856e-07
-9.20049e-09
-5.49309e-07
-1.65852e-08
-5.45604e-07
-2.4002e-08
-5.4074e-07
-3.14159e-08
-5.34725e-07
-3.87898e-08
-5.2757e-07
-4.60854e-08
-5.19294e-07
-5.32628e-08
-5.09922e-07
-6.0281e-08
-4.99483e-07
-6.70984e-08
-4.88013e-07
-7.36728e-08
-4.75556e-07
-7.99621e-08
-4.6216e-07
-8.59243e-08
-4.47881e-07
-9.15183e-08
-4.32778e-07
-9.67039e-08
-4.16919e-07
-1.01443e-07
-4.00375e-07
-1.05698e-07
-3.83224e-07
-1.09435e-07
-3.65547e-07
-1.12624e-07
-3.4743e-07
-1.15235e-07
-3.28963e-07
-1.17245e-07
-3.10238e-07
-1.18632e-07
-2.9135e-07
-1.19382e-07
-2.72397e-07
-1.19481e-07
-2.53477e-07
-1.18925e-07
-2.34688e-07
-1.17712e-07
-2.16127e-07
-1.15846e-07
-1.97892e-07
-1.13338e-07
-1.80077e-07
-1.10203e-07
-1.62772e-07
-1.06464e-07
-1.46066e-07
-1.02149e-07
-1.30039e-07
-9.72918e-08
-1.14769e-07
-9.1934e-08
-1.00325e-07
-8.61223e-08
-8.67689e-08
-7.99107e-08
-7.41542e-08
-7.33594e-08
-6.25249e-08
-6.65358e-08
-5.1915e-08
-5.95143e-08
-4.23473e-08
-5.23767e-08
-3.38332e-08
-4.52129e-08
-2.6372e-08
-3.81209e-08
-1.99499e-08
-3.12083e-08
-1.45404e-08
-2.45925e-08
-1.01034e-08
-1.84018e-08
-6.58533e-09
-1.27772e-08
-3.91929e-09
-7.87326e-09
-2.02534e-09
-3.86043e-09
-8.11188e-10
-9.26278e-10
-1.73482e-10
7.22531e-10
8.4551e-10
-7.08393e-10
2.30217e-09
-2.77827e-09
8.21857e-09
-6.16271e-09
1.50694e-08
-1.08183e-08
2.25533e-08
-1.67018e-08
3.04275e-08
-2.37686e-08
3.84872e-08
-3.19711e-08
4.65618e-08
-4.12587e-08
5.45126e-08
-5.15772e-08
6.22284e-08
-6.2869e-08
6.96216e-08
-7.50739e-08
7.66251e-08
-8.8129e-08
8.3189e-08
-1.0197e-07
8.92776e-08
-1.16529e-07
9.48672e-08
-1.31741e-07
9.99437e-08
-1.47537e-07
1.04501e-07
-1.6385e-07
1.08538e-07
-1.80613e-07
1.12059e-07
-1.97758e-07
1.15072e-07
-2.15221e-07
1.17586e-07
-2.32936e-07
1.19614e-07
-2.5084e-07
1.21166e-07
-2.68869e-07
1.22256e-07
-2.86962e-07
1.22894e-07
-3.05059e-07
1.23094e-07
-3.231e-07
1.22864e-07
-3.41025e-07
1.22216e-07
-3.58779e-07
1.21157e-07
-3.76302e-07
1.19695e-07
-3.9354e-07
1.17836e-07
-4.10437e-07
1.15587e-07
-4.26937e-07
1.12952e-07
-4.42986e-07
1.09936e-07
-4.58531e-07
1.06542e-07
-4.73517e-07
1.02775e-07
-4.87894e-07
9.86373e-08
-5.01608e-07
9.41345e-08
-5.14609e-07
8.92709e-08
-5.26846e-07
8.40522e-08
-5.38271e-07
7.84852e-08
-5.48836e-07
7.25779e-08
-5.58494e-07
6.63399e-08
-5.67202e-07
5.97826e-08
-5.74916e-07
5.29195e-08
-5.81598e-07
4.57661e-08
-5.87209e-07
3.83404e-08
-5.91714e-07
3.06626e-08
-5.95084e-07
2.27556e-08
-5.97289e-07
1.46451e-08
-5.98305e-07
6.35906e-09
-5.98115e-07
-2.07162e-09
-5.96702e-07
-1.06136e-08
-5.94056e-07
-1.92308e-08
-5.90173e-07
-2.7885e-08
-5.85054e-07
-3.65356e-08
-5.78704e-07
-4.51398e-08
-5.71136e-07
-5.36533e-08
-5.62369e-07
-6.20299e-08
-5.52427e-07
-7.02225e-08
-5.41343e-07
-7.81829e-08