/*--------------------------------*- C++ -*----------------------------------*\
| =========                 |                                                 |
| \\      /  F ield         | OpenFOAM: The Open Source CFD Toolbox           |
|  \\    /   O peration     | Version:  2512                                  |
|   \\  /    A nd           | Website:  www.openfoam.com                      |
|    \\/     M anipulation  |                                                 |
\*---------------------------------------------------------------------------*/
FoamFile
{
    version     2.0;
    format      ascii;
    arch        "LSB;label=32;scalar=64";
    class       volVectorField;
    location    "0.44";
    object      U;
}
// * * * * * * * * * * * * * * * * * * * * * * * * * * * * * * * * * * * * * //

dimensions      [0 1 -1 0 0 0 0];

internalField   nonuniform List<vector> 
10000
(
(3.47413e-06 -3.34034e-06 0)
(1.49446e-05 -7.26773e-06 0)
(3.11789e-05 -7.62801e-06 0)
(4.42369e-05 -5.77557e-06 0)
(4.98701e-05 -2.89369e-06 0)
(4.62022e-05 3.95948e-07 0)
(3.25091e-05 3.76497e-06 0)
(8.67296e-06 7.03869e-06 0)
(-2.50371e-05 1.01276e-05 0)
(-6.8124e-05 1.29884e-05 0)
(-0.000119968 1.56048e-05 0)
(-0.000179886 1.79724e-05 0)
(-0.000247164 2.00944e-05 0)
(-0.000321086 2.19808e-05 0)
(-0.000400947 2.36433e-05 0)
(-0.000486067 2.50954e-05 0)
(-0.000575797 2.63502e-05 0)
(-0.000669516 2.7421e-05 0)
(-0.00076664 2.83213e-05 0)
(-0.000866618 2.90633e-05 0)
(-0.000968931 2.96574e-05 0)
(-0.00107309 3.01136e-05 0)
(-0.00117864 3.04425e-05 0)
(-0.00128515 3.0652e-05 0)
(-0.0013922 3.0749e-05 0)
(-0.00149941 3.07394e-05 0)
(-0.00160641 3.06275e-05 0)
(-0.00171282 3.0417e-05 0)
(-0.00181832 3.01112e-05 0)
(-0.00192255 2.97131e-05 0)
(-0.00202518 2.92239e-05 0)
(-0.00212589 2.86436e-05 0)
(-0.00222436 2.79715e-05 0)
(-0.00232024 2.72076e-05 0)
(-0.00241322 2.63521e-05 0)
(-0.00250298 2.54047e-05 0)
(-0.00258919 2.4364e-05 0)
(-0.00267151 2.32284e-05 0)
(-0.00274962 2.19969e-05 0)
(-0.00282318 2.06694e-05 0)
(-0.00289188 1.9246e-05 0)
(-0.00295539 1.77276e-05 0)
(-0.00301338 1.61145e-05 0)
(-0.00306554 1.44082e-05 0)
(-0.00311156 1.26111e-05 0)
(-0.00315114 1.07261e-05 0)
(-0.00318401 8.7574e-06 0)
(-0.00320989 6.71012e-06 0)
(-0.00322855 4.58994e-06 0)
(-0.00323975 2.40408e-06 0)
(-0.00324331 1.60759e-07 0)
(-0.00323905 -2.13127e-06 0)
(-0.00322685 -4.46182e-06 0)
(-0.00320661 -6.81955e-06 0)
(-0.00317827 -9.19259e-06 0)
(-0.00314182 -1.15678e-05 0)
(-0.00309728 -1.3931e-05 0)
(-0.00304474 -1.62679e-05 0)
(-0.00298432 -1.85634e-05 0)
(-0.00291621 -2.0801e-05 0)
(-0.00284063 -2.29648e-05 0)
(-0.00275787 -2.50387e-05 0)
(-0.00266828 -2.70058e-05 0)
(-0.00257224 -2.885e-05 0)
(-0.00247021 -3.05554e-05 0)
(-0.00236268 -3.21066e-05 0)
(-0.00225019 -3.34883e-05 0)
(-0.00213335 -3.46867e-05 0)
(-0.00201278 -3.56891e-05 0)
(-0.00188917 -3.64839e-05 0)
(-0.00176322 -3.70606e-05 0)
(-0.00163569 -3.74107e-05 0)
(-0.00150733 -3.75274e-05 0)
(-0.00137893 -3.74054e-05 0)
(-0.00125129 -3.70412e-05 0)
(-0.00112522 -3.64337e-05 0)
(-0.00100152 -3.55841e-05 0)
(-0.000880986 -3.44948e-05 0)
(-0.000764407 -3.31705e-05 0)
(-0.000652544 -3.16185e-05 0)
(-0.000546131 -2.9848e-05 0)
(-0.00044587 -2.78697e-05 0)
(-0.000352418 -2.56965e-05 0)
(-0.000266383 -2.33432e-05 0)
(-0.000188319 -2.08269e-05 0)
(-0.000118712 -1.81667e-05 0)
(-5.79796e-05 -1.53836e-05 0)
(-6.45394e-06 -1.25018e-05 0)
(3.56242e-05 -9.54907e-06 0)
(6.81222e-05 -6.55783e-06 0)
(9.10348e-05 -3.5673e-06 0)
(0.000104511 -6.26969e-07 0)
(0.000108889 2.19662e-06 0)
(0.000104758 4.8083e-06 0)
(9.30396e-05 7.06803e-06 0)
(7.51305e-05 8.75842e-06 0)
(5.30676e-05 9.54244e-06 0)
(2.98401e-05 8.88576e-06 0)
(1.0284e-05 6.04265e-06 0)
(1.09278e-06 1.09827e-06 0)
(7.50603e-06 -1.50016e-05 0)
(2.78727e-05 -2.75749e-05 0)
(5.13118e-05 -2.5851e-05 0)
(6.44607e-05 -1.49916e-05 0)
(5.90618e-05 9.65347e-07 0)
(3.08397e-05 1.9461e-05 0)
(-2.24167e-05 3.88913e-05 0)
(-0.000101481 5.82669e-05 0)
(-0.00020612 7.69868e-05 0)
(-0.000335446 9.46911e-05 0)
(-0.000488144 0.000111173 0)
(-0.000662645 0.000126326 0)
(-0.000857228 0.000140106 0)
(-0.00107011 0.000152513 0)
(-0.00129948 0.000163576 0)
(-0.00154356 0.000173339 0)
(-0.00180061 0.000181856 0)
(-0.00206896 0.00018919 0)
(-0.00234701 0.000195406 0)
(-0.00263323 0.000200566 0)
(-0.00292617 0.000204731 0)
(-0.00322444 0.000207957 0)
(-0.00352675 0.000210298 0)
(-0.00383184 0.000211802 0)
(-0.00413852 0.000212509 0)
(-0.00444567 0.000212456 0)
(-0.0047522 0.000211672 0)
(-0.00505705 0.000210182 0)
(-0.0053592 0.000208007 0)
(-0.00565765 0.000205162 0)
(-0.00595144 0.000201657 0)
(-0.00623958 0.0001975 0)
(-0.00652113 0.000192693 0)
(-0.00679514 0.000187238 0)
(-0.00706067 0.000181135 0)
(-0.00731677 0.000174384 0)
(-0.0075625 0.000166983 0)
(-0.00779692 0.00015893 0)
(-0.00801909 0.000150224 0)
(-0.00822808 0.000140867 0)
(-0.00842295 0.000130863 0)
(-0.00860281 0.00012022 0)
(-0.00876673 0.000108949 0)
(-0.00891385 9.70638e-05 0)
(-0.00904332 8.45849e-05 0)
(-0.00915432 7.15371e-05 0)
(-0.00924608 5.79509e-05 0)
(-0.00931788 4.38637e-05 0)
(-0.00936906 2.93181e-05 0)
(-0.00939902 1.43633e-05 0)
(-0.00940724 -9.44049e-07 0)
(-0.00939328 -1.6542e-05 0)
(-0.00935682 -3.2362e-05 0)
(-0.00929761 -4.83285e-05 0)
(-0.00921553 -6.43606e-05 0)
(-0.00911057 -8.03721e-05 0)
(-0.00898285 -9.62709e-05 0)
(-0.00883262 -0.000111961 0)
(-0.00866027 -0.000127343 0)
(-0.00846633 -0.000142314 0)
(-0.00825147 -0.00015677 0)
(-0.00801652 -0.000170604 0)
(-0.00776244 -0.000183712 0)
(-0.00749035 -0.000195989 0)
(-0.0072015 -0.000207332 0)
(-0.0068973 -0.000217644 0)
(-0.00657926 -0.000226829 0)
(-0.00624905 -0.0002348 0)
(-0.00590843 -0.000241476 0)
(-0.00555929 -0.000246783 0)
(-0.00520359 -0.000250658 0)
(-0.0048434 -0.000253047 0)
(-0.00448082 -0.000253907 0)
(-0.00411803 -0.000253206 0)
(-0.00375723 -0.000250926 0)
(-0.00340063 -0.000247061 0)
(-0.00305046 -0.000241619 0)
(-0.0027089 -0.00023462 0)
(-0.0023781 -0.0002261 0)
(-0.00206016 -0.000216107 0)
(-0.00175709 -0.000204705 0)
(-0.0014708 -0.000191969 0)
(-0.00120306 -0.000177991 0)
(-0.000955542 -0.000162875 0)
(-0.000729711 -0.000146742 0)
(-0.000526867 -0.000129729 0)
(-0.00034809 -0.000111989 0)
(-0.000194222 -9.37005e-05 0)
(-6.58281e-05 -7.50644e-05 0)
(3.68451e-05 -5.63164e-05 0)
(0.000113921 -3.77373e-05 0)
(0.000165963 -1.96714e-05 0)
(0.000194069 -2.55356e-06 0)
(0.000199991 1.30488e-05 0)
(0.00018632 2.63745e-05 0)
(0.000156694 3.63804e-05 0)
(0.000116005 4.16445e-05 0)
(7.06501e-05 4.025e-05 0)
(2.98574e-05 2.99167e-05 0)
(6.00154e-06 1.0259e-05 0)
(7.82304e-06 -3.14118e-05 0)
(2.62849e-05 -5.12092e-05 0)
(4.14165e-05 -4.08723e-05 0)
(3.78253e-05 -1.09618e-05 0)
(5.80088e-06 3.09366e-05 0)
(-6.02062e-05 7.94318e-05 0)
(-0.000163315 0.00013082 0)
(-0.000304823 0.000182623 0)
(-0.000484655 0.0002332 0)
(-0.000701762 0.000281494 0)
(-0.000954432 0.00032684 0)
(-0.00124051 0.000368845 0)
(-0.00155756 0.000407305 0)
(-0.001903 0.000442144 0)
(-0.00227417 0.000473377 0)
(-0.0026684 0.000501075 0)
(-0.00308306 0.00052535 0)
(-0.00351558 0.000546339 0)
(-0.00396349 0.000564192 0)
(-0.0044244 0.000579062 0)
(-0.00489603 0.0005911 0)
(-0.0053762 0.000600452 0)
(-0.00586282 0.000607251 0)
(-0.00635389 0.000611624 0)
(-0.0068475 0.00061368 0)
(-0.00734183 0.000613516 0)
(-0.0078351 0.000611213 0)
(-0.00832559 0.000606841 0)
(-0.00881165 0.000600456 0)
(-0.00929165 0.0005921 0)
(-0.00976399 0.000581808 0)
(-0.0102271 0.000569602 0)
(-0.0106794 0.000555497 0)
(-0.0111195 0.000539501 0)
(-0.0115456 0.000521619 0)
(-0.0119564 0.000501854 0)
(-0.0123503 0.000480207 0)
(-0.0127258 0.000456682 0)
(-0.0130813 0.000431283 0)
(-0.0134155 0.000404022 0)
(-0.0137268 0.000374917 0)
(-0.0140137 0.000343994 0)
(-0.0142749 0.000311292 0)
(-0.014509 0.000276859 0)
(-0.0147146 0.000240758 0)
(-0.0148905 0.000203065 0)
(-0.0150354 0.000163874 0)
(-0.0151483 0.000123294 0)
(-0.0152282 8.14498e-05 0)
(-0.015274 3.84864e-05 0)
(-0.0152851 -5.43467e-06 0)
(-0.0152608 -5.01334e-05 0)
(-0.0152005 -9.54132e-05 0)
(-0.0151041 -0.00014106 0)
(-0.0149712 -0.000186845 0)
(-0.0148019 -0.000232522 0)
(-0.0145965 -0.000277833 0)
(-0.0143553 -0.000322509 0)
(-0.0140791 -0.000366269 0)
(-0.0137687 -0.000408828 0)
(-0.0134251 -0.000449892 0)
(-0.0130498 -0.000489167 0)
(-0.0126442 -0.00052636 0)
(-0.0122101 -0.000561181 0)
(-0.0117495 -0.000593346 0)
(-0.0112646 -0.000622582 0)
(-0.0107579 -0.000648629 0)
(-0.0102318 -0.000671244 0)
(-0.00968935 -0.000690203 0)
(-0.00913332 -0.000705304 0)
(-0.00856684 -0.000716372 0)
(-0.00799313 -0.000723261 0)
(-0.0074155 -0.000725852 0)
(-0.00683735 -0.000724063 0)
(-0.0062621 -0.000717843 0)
(-0.00569323 -0.00070718 0)
(-0.00513418 -0.000692099 0)
(-0.00458836 -0.000672662 0)
(-0.00405914 -0.000648971 0)
(-0.00354976 -0.000621167 0)
(-0.00306334 -0.000589433 0)
(-0.00260284 -0.000553989 0)
(-0.00217103 -0.0005151 0)
(-0.00177044 -0.000473071 0)
(-0.00140334 -0.000428252 0)
(-0.0010717 -0.000381042 0)
(-0.000777146 -0.000331895 0)
(-0.000520921 -0.000281325 0)
(-0.000303818 -0.000229924 0)
(-0.000126129 -0.000178376 0)
(1.24368e-05 -0.000127488 0)
(0.000112847 -7.8229e-05 0)
(0.000176867 -3.17863e-05 0)
(0.000207209 1.03563e-05 0)
(0.000207724 4.63119e-05 0)
(0.000183614 7.36701e-05 0)
(0.000141562 8.93866e-05 0)
(8.98726e-05 8.97456e-05 0)
(4.01952e-05 7.06814e-05 0)
(8.81292e-06 2.97204e-05 0)
(5.9992e-06 -4.4855e-05 0)
(1.55508e-05 -6.46927e-05 0)
(1.16826e-05 -3.73938e-05 0)
(-2.03507e-05 2.09835e-05 0)
(-9.03552e-05 9.91239e-05 0)
(-0.000204312 0.000188679 0)
(-0.000365704 0.000283617 0)
(-0.000576052 0.000379698 0)
(-0.000835338 0.000473989 0)
(-0.0011424 0.000564501 0)
(-0.00149524 0.000649924 0)
(-0.00189131 0.000729429 0)
(-0.00232762 0.000802544 0)
(-0.002801 0.000869042 0)
(-0.0033081 0.000928872 0)
(-0.00384554 0.000982108 0)
(-0.00440997 0.00102891 0)
(-0.00499806 0.00106948 0)
(-0.00560659 0.00110407 0)
(-0.00623243 0.00113294 0)
(-0.00687255 0.00115636 0)
(-0.00752407 0.00117456 0)
(-0.00818418 0.0011878 0)
(-0.00885021 0.0011963 0)
(-0.00951958 0.00120026 0)
(-0.0101898 0.00119986 0)
(-0.0108585 0.00119524 0)
(-0.0115233 0.00118655 0)
(-0.0121819 0.00117388 0)
(-0.0128322 0.00115732 0)
(-0.0134719 0.00113694 0)
(-0.0140988 0.00111277 0)
(-0.014711 0.00108487 0)
(-0.0153063 0.00105324 0)
(-0.0158825 0.00101792 0)
(-0.0164376 0.000978896 0)
(-0.0169696 0.000936195 0)
(-0.0174764 0.000889827 0)
(-0.017956 0.000839813 0)
(-0.0184064 0.000786183 0)
(-0.0188256 0.000728982 0)
(-0.0192117 0.000668272 0)
(-0.0195627 0.000604132 0)
(-0.0198769 0.000536667 0)
(-0.0201525 0.000466006 0)
(-0.0203877 0.000392305 0)
(-0.0205811 0.000315751 0)
(-0.0207312 0.000236561 0)
(-0.0208366 0.000154984 0)
(-0.0208962 7.13041e-05 0)
(-0.020909 -1.41635e-05 0)
(-0.0208741 -0.000101069 0)
(-0.0207909 -0.000189029 0)
(-0.020659 -0.000277632 0)
(-0.0204782 -0.000366433 0)
(-0.0202487 -0.000454961 0)
(-0.0199707 -0.000542722 0)
(-0.0196449 -0.000629197 0)
(-0.0192722 -0.000713853 0)
(-0.0188537 -0.000796141 0)
(-0.0183909 -0.000875504 0)
(-0.0178857 -0.000951382 0)
(-0.01734 -0.00102322 0)
(-0.0167563 -0.00109046 0)
(-0.0161372 -0.00115257 0)
(-0.0154857 -0.00120903 0)
(-0.0148049 -0.00125934 0)
(-0.0140983 -0.00130306 0)
(-0.0133697 -0.00133975 0)
(-0.0126228 -0.00136903 0)
(-0.0118619 -0.00139059 0)
(-0.011091 -0.00140412 0)
(-0.0103147 -0.00140943 0)
(-0.00953739 -0.00140635 0)
(-0.00876357 -0.0013948 0)
(-0.00799782 -0.00137474 0)
(-0.00724469 -0.00134625 0)
(-0.00650868 -0.00130943 0)
(-0.00579419 -0.00126449 0)
(-0.00510548 -0.00121171 0)
(-0.00444666 -0.00115145 0)
(-0.00382161 -0.00108412 0)
(-0.00323393 -0.00101026 0)
(-0.00268693 -0.000930451 0)
(-0.00218357 -0.000845388 0)
(-0.0017264 -0.000755849 0)
(-0.0013175 -0.000662721 0)
(-0.000958432 -0.000567008 0)
(-0.000650189 -0.00046986 0)
(-0.000393088 -0.000372597 0)
(-0.000186697 -0.00027676 0)
(-2.97207e-05 -0.000184164 0)
(8.01171e-05 -9.69874e-05 0)
(0.000146225 -1.78712e-05 0)
(0.000173318 4.99469e-05 0)
(0.000167612 0.000102495 0)
(0.000136888 0.00013495 0)
(9.06154e-05 0.000141634 0)
(4.19392e-05 0.000116284 0)
(9.49509e-06 5.28971e-05 0)
(3.13789e-06 -5.08463e-05 0)
(-4.34869e-07 -5.96194e-05 0)
(-3.05506e-05 -5.34646e-06 0)
(-9.93831e-05 9.10804e-05 0)
(-0.000215743 0.000214908 0)
(-0.000385439 0.000354982 0)
(-0.000611857 0.000502994 0)
(-0.000896425 0.000652906 0)
(-0.00123902 0.000800402 0)
(-0.0016383 0.000942445 0)
(-0.00209204 0.00107696 0)
(-0.00259731 0.0012026 0)
(-0.00315075 0.00131851 0)
(-0.00374866 0.00142426 0)
(-0.00438717 0.00151968 0)
(-0.00506233 0.0016048 0)
(-0.00577016 0.0016798 0)
(-0.0065067 0.00174497 0)
(-0.0072681 0.00180063 0)
(-0.00805057 0.00184715 0)
(-0.00885045 0.00188491 0)
(-0.0096642 0.00191427 0)
(-0.0104884 0.00193561 0)
(-0.0113197 0.00194926 0)
(-0.0121551 0.00195551 0)
(-0.0129912 0.00195465 0)
(-0.0138253 0.0019469 0)
(-0.0146543 0.00193247 0)
(-0.0154754 0.00191153 0)
(-0.0162859 0.00188422 0)
(-0.017083 0.00185062 0)
(-0.017864 0.00181085 0)
(-0.0186263 0.00176494 0)
(-0.0193672 0.00171294 0)
(-0.0200842 0.0016549 0)
(-0.0207746 0.00159084 0)
(-0.0214359 0.00152079 0)
(-0.0220655 0.00144478 0)
(-0.022661 0.00136287 0)
(-0.0232198 0.0012751 0)
(-0.0237396 0.00118156 0)
(-0.0242179 0.00108238 0)
(-0.0246524 0.000977678 0)
(-0.0250409 0.000867649 0)
(-0.0253812 0.000752507 0)
(-0.0256714 0.000632516 0)
(-0.0259094 0.000507985 0)
(-0.0260935 0.000379274 0)
(-0.0262222 0.000246792 0)
(-0.026294 0.000111001 0)
(-0.0263077 -2.75832e-05 0)
(-0.0262624 -0.000168396 0)
(-0.0261574 -0.000310818 0)
(-0.0259921 -0.000454184 0)
(-0.0257665 -0.00059778 0)
(-0.0254806 -0.000740851 0)
(-0.0251349 -0.000882603 0)
(-0.0247303 -0.00102221 0)
(-0.0242678 -0.00115882 0)
(-0.0237489 -0.00129156 0)
(-0.0231756 -0.00141953 0)
(-0.0225498 -0.00154186 0)
(-0.0218743 -0.00165765 0)
(-0.021152 -0.00176604 0)
(-0.020386 -0.00186615 0)
(-0.0195801 -0.00195719 0)
(-0.0187381 -0.00203836 0)
(-0.0178642 -0.00210894 0)
(-0.016963 -0.00216826 0)
(-0.0160392 -0.00221572 0)
(-0.0150978 -0.00225081 0)
(-0.0141439 -0.00227307 0)
(-0.0131828 -0.00228218 0)
(-0.01222 -0.00227789 0)
(-0.0112611 -0.00226006 0)
(-0.0103114 -0.00222867 0)
(-0.00937661 -0.00218379 0)
(-0.00846211 -0.00212565 0)
(-0.00757325 -0.00205456 0)
(-0.0067152 -0.00197098 0)
(-0.00589292 -0.00187548 0)
(-0.0051111 -0.00176876 0)
(-0.00437411 -0.00165166 0)
(-0.00368594 -0.00152515 0)
(-0.00305013 -0.00139033 0)
(-0.00246974 -0.00124849 0)
(-0.00194727 -0.00110104 0)
(-0.00148458 -0.000949615 0)
(-0.00108283 -0.000796048 0)
(-0.000742378 -0.000642446 0)
(-0.000462711 -0.000491229 0)
(-0.000242319 -0.000345215 0)
(-7.85772e-05 -0.000207712 0)
(3.23797e-05 -8.26461e-05 0)
(9.58153e-05 2.52999e-05 0)
(0.000118551 0.00011053 0)
(0.000109021 0.000166399 0)
(7.74039e-05 0.00018517 0)
(3.75669e-05 0.000158094 0)
(8.83591e-06 7.51901e-05 0)
(-1.59638e-07 -4.7503e-05 0)
(-1.92422e-05 -3.13347e-05 0)
(-8.02783e-05 6.14282e-05 0)
(-0.000191622 0.000206172 0)
(-0.000360332 0.000385186 0)
(-0.000591561 0.000584808 0)
(-0.000888206 0.000794633 0)
(-0.00125132 0.0010069 0)
(-0.00168048 0.00121592 0)
(-0.00217409 0.00141758 0)
(-0.00272961 0.00160899 0)
(-0.0033438 0.0017882 0)
(-0.00401291 0.00195395 0)
(-0.00473285 0.00210553 0)
(-0.00549928 0.0022426 0)
(-0.00630777 0.00236514 0)
(-0.00715381 0.00247333 0)
(-0.00803292 0.00256747 0)
(-0.00894069 0.00264798 0)
(-0.00987277 0.00271534 0)
(-0.0108249 0.00277003 0)
(-0.0117931 0.00281255 0)
(-0.0127732 0.00284339 0)
(-0.0137615 0.00286299 0)
(-0.0147541 0.00287178 0)
(-0.0157475 0.00287012 0)
(-0.0167382 0.00285834 0)
(-0.0177225 0.00283673 0)
(-0.0186973 0.00280553 0)
(-0.0196591 0.00276492 0)
(-0.0206048 0.00271507 0)
(-0.0215312 0.0026561 0)
(-0.022435 0.0025881 0)
(-0.0233132 0.00251115 0)
(-0.0241627 0.0024253 0)
(-0.0249804 0.00233062 0)
(-0.0257633 0.00222716 0)
(-0.0265083 0.00211497 0)
(-0.0272126 0.00199416 0)
(-0.0278732 0.00186481 0)
(-0.0284873 0.00172708 0)
(-0.029052 0.00158113 0)
(-0.0295647 0.00142719 0)
(-0.0300227 0.00126554 0)
(-0.0304236 0.0010965 0)
(-0.0307649 0.000920485 0)
(-0.0310446 0.000737943 0)
(-0.0312604 0.00054941 0)
(-0.0314107 0.000355493 0)
(-0.0314938 0.000156869 0)
(-0.0315084 -4.57072e-05 0)
(-0.0314533 -0.000251409 0)
(-0.0313278 -0.000459337 0)
(-0.0311313 -0.000668524 0)
(-0.0308638 -0.000877935 0)
(-0.0305254 -0.00108648 0)
(-0.0301167 -0.00129301 0)
(-0.0296387 -0.00149633 0)
(-0.0290927 -0.00169521 0)
(-0.0284805 -0.00188841 0)
(-0.0278042 -0.00207463 0)
(-0.0270665 -0.00225261 0)
(-0.0262702 -0.00242108 0)
(-0.025419 -0.00257877 0)
(-0.0245164 -0.00272446 0)
(-0.0235668 -0.002857 0)
(-0.0225747 -0.00297525 0)
(-0.021545 -0.00307817 0)
(-0.020483 -0.00316483 0)
(-0.019394 -0.00323435 0)
(-0.018284 -0.00328599 0)
(-0.017159 -0.00331914 0)
(-0.0160249 -0.0033333 0)
(-0.0148883 -0.00332814 0)
(-0.0137554 -0.00330347 0)
(-0.0126326 -0.00325924 0)
(-0.0115264 -0.0031956 0)
(-0.010443 -0.00311284 0)
(-0.00938869 -0.00301145 0)
(-0.00836937 -0.00289209 0)
(-0.00739079 -0.00275559 0)
(-0.00645837 -0.00260297 0)
(-0.00557716 -0.00243546 0)
(-0.00475176 -0.00225447 0)
(-0.00398626 -0.00206161 0)
(-0.00328419 -0.00185873 0)
(-0.0026484 -0.0016479 0)
(-0.00208106 -0.00143147 0)
(-0.00158351 -0.00121207 0)
(-0.00115619 -0.000992715 0)
(-0.000798583 -0.00077681 0)
(-0.000509065 -0.000568279 0)
(-0.000284824 -0.000371658 0)
(-0.000121739 -0.000192225 0)
(-1.4251e-05 -3.61551e-05 0)
(4.47727e-05 8.93109e-05 0)
(6.40916e-05 0.000175697 0)
(5.42324e-05 0.000213183 0)
(2.9116e-05 0.000190493 0)
(7.39488e-06 9.39354e-05 0)
(-3.59918e-06 -3.39021e-05 0)
(-3.9429e-05 2.28987e-05 0)
(-0.000134176 0.000166941 0)
(-0.000291724 0.000370951 0)
(-0.00051688 0.00061485 0)
(-0.000813767 0.000882866 0)
(-0.00118449 0.00116275 0)
(-0.00162946 0.00144518 0)
(-0.0021478 0.00172316 0)
(-0.00273749 0.00199154 0)
(-0.00339565 0.00224663 0)
(-0.00411867 0.00248585 0)
(-0.00490245 0.0027075 0)
(-0.00574252 0.00291056 0)
(-0.00663413 0.00309452 0)
(-0.00757243 0.00325923 0)
(-0.00855245 0.00340486 0)
(-0.00956926 0.00353174 0)
(-0.010618 0.00364036 0)
(-0.0116937 0.00373128 0)
(-0.0127918 0.00380509 0)
(-0.0139076 0.00386243 0)
(-0.0150367 0.00390389 0)
(-0.0161746 0.00393004 0)
(-0.0173171 0.00394142 0)
(-0.0184601 0.00393851 0)
(-0.0195996 0.00392174 0)
(-0.0207315 0.00389146 0)
(-0.0218521 0.003848 0)
(-0.0229576 0.00379162 0)
(-0.0240442 0.00372252 0)
(-0.0251082 0.00364088 0)
(-0.0261461 0.00354684 0)
(-0.0271543 0.0034405 0)
(-0.0281292 0.00332196 0)
(-0.0290673 0.00319131 0)
(-0.0299651 0.00304864 0)
(-0.0308193 0.00289405 0)
(-0.0316264 0.00272768 0)
(-0.0323832 0.00254969 0)
(-0.0330863 0.00236028 0)
(-0.0337326 0.00215972 0)
(-0.0343191 0.00194832 0)
(-0.0348427 0.00172648 0)
(-0.0353008 0.00149468 0)
(-0.0356905 0.00125345 0)
(-0.0360095 0.00100345 0)
(-0.0362555 0.000745418 0)
(-0.0364264 0.000480177 0)
(-0.0365204 0.000208663 0)
(-0.0365361 -6.80954e-05 0)
(-0.0364722 -0.00034897 0)
(-0.0363279 -0.000632737 0)
(-0.0361027 -0.000918083 0)
(-0.0357964 -0.00120361 0)
(-0.0354093 -0.00148784 0)
(-0.0349421 -0.00176921 0)
(-0.0343958 -0.00204614 0)
(-0.0337721 -0.00231695 0)
(-0.0330729 -0.00257996 0)
(-0.0323008 -0.00283345 0)
(-0.0314586 -0.00307571 0)
(-0.0305498 -0.00330503 0)
(-0.0295781 -0.00351972 0)
(-0.028548 -0.00371815 0)
(-0.027464 -0.00389874 0)
(-0.0263315 -0.00406 0)
(-0.0251558 -0.00420054 0)
(-0.0239429 -0.00431908 0)
(-0.022699 -0.00441448 0)
(-0.0214306 -0.00448573 0)
(-0.0201443 -0.00453202 0)
(-0.0188471 -0.00455269 0)
(-0.0175462 -0.00454729 0)
(-0.0162486 -0.00451557 0)
(-0.0149616 -0.00445749 0)
(-0.0136923 -0.00437323 0)
(-0.0124478 -0.00426321 0)
(-0.0112351 -0.00412809 0)
(-0.0100608 -0.00396875 0)
(-0.0089315 -0.00378635 0)
(-0.0078532 -0.00358227 0)
(-0.00683156 -0.00335816 0)
(-0.00587177 -0.00311594 0)
(-0.00497843 -0.00285782 0)
(-0.00415548 -0.00258627 0)
(-0.00340619 -0.00230409 0)
(-0.00273297 -0.00201445 0)
(-0.00213741 -0.00172087 0)
(-0.00162008 -0.00142733 0)
(-0.00118052 -0.00113832 0)
(-0.00081711 -0.000858947 0)
(-0.00052699 -0.000595019 0)
(-0.000305952 -0.000353206 0)
(-0.000148342 -0.000141188 0)
(-4.69465e-05 3.21635e-05 0)
(7.05825e-06 0.000156578 0)
(2.42469e-05 0.000220223 0)
(1.80565e-05 0.000209461 0)
(5.51921e-06 0.000107466 0)
(-7.03086e-06 -9.67333e-06 0)
(-6.01403e-05 0.000104581 0)
(-0.000190096 0.000313632 0)
(-0.000396053 0.000588461 0)
(-0.000680272 0.00090722 0)
(-0.00104559 0.00125244 0)
(-0.00149307 0.00161034 0)
(-0.00202231 0.00197024 0)
(-0.00263175 0.00232398 0)
(-0.00331888 0.00266546 0)
(-0.00408035 0.0029902 0)
(-0.00491218 0.00329504 0)
(-0.00580987 0.00357784 0)
(-0.00676856 0.00383724 0)
(-0.00778316 0.00407254 0)
(-0.00884838 0.00428349 0)
(-0.0099589 0.00447019 0)
(-0.0111093 0.004633 0)
(-0.0122944 0.00477246 0)
(-0.0135088 0.00488921 0)
(-0.0147474 0.00498395 0)
(-0.0160051 0.00505743 0)
(-0.017277 0.00511037 0)
(-0.0185583 0.00514345 0)
(-0.0198442 0.00515732 0)
(-0.0211302 0.00515258 0)
(-0.0224118 0.00512975 0)
(-0.0236845 0.00508929 0)
(-0.0249442 0.00503159 0)
(-0.0261865 0.00495698 0)
(-0.0274073 0.00486574 0)
(-0.0286025 0.00475808 0)
(-0.029768 0.00463418 0)
(-0.0308998 0.00449422 0)
(-0.031994 0.00433831 0)
(-0.0330466 0.00416659 0)
(-0.0340538 0.00397919 0)
(-0.0350117 0.00377628 0)
(-0.0359166 0.00355804 0)
(-0.0367648 0.0033247 0)
(-0.0375527 0.00307655 0)
(-0.0382767 0.00281395 0)
(-0.0389335 0.00253734 0)
(-0.0395198 0.00224725 0)
(-0.0400325 0.00194431 0)
(-0.0404686 0.00162925 0)
(-0.0408255 0.00130292 0)
(-0.0411006 0.00096629 0)
(-0.0412917 0.000620448 0)
(-0.0413969 0.000266612 0)
(-0.0414145 -9.38788e-05 0)
(-0.0413432 -0.000459559 0)
(-0.0411821 -0.000828845 0)
(-0.0409307 -0.00120004 0)
(-0.0405887 -0.00157132 0)
(-0.0401567 -0.0019408 0)
(-0.0396352 -0.00230648 0)
(-0.0390256 -0.00266628 0)
(-0.0383296 -0.00301809 0)
(-0.0375494 -0.00335972 0)
(-0.0366878 -0.00368897 0)
(-0.035748 -0.00400365 0)
(-0.0347338 -0.00430157 0)
(-0.0336494 -0.00458056 0)
(-0.0324995 -0.00483853 0)
(-0.0312894 -0.00507348 0)
(-0.0300248 -0.00528348 0)
(-0.0287116 -0.00546675 0)
(-0.0273564 -0.00562166 0)
(-0.025966 -0.00574675 0)
(-0.0245475 -0.00584074 0)
(-0.0231084 -0.00590257 0)
(-0.0216562 -0.00593143 0)
(-0.0201988 -0.00592672 0)
(-0.018744 -0.00588813 0)
(-0.0172998 -0.00581561 0)
(-0.015874 -0.00570941 0)
(-0.0144745 -0.00557007 0)
(-0.0131089 -0.00539844 0)
(-0.0117846 -0.00519567 0)
(-0.0105087 -0.00496323 0)
(-0.00928791 -0.00470293 0)
(-0.0081285 -0.00441691 0)
(-0.00703617 -0.00410762 0)
(-0.006016 -0.00377792 0)
(-0.0050724 -0.00343098 0)
(-0.00420898 -0.00307042 0)
(-0.0034285 -0.00270025 0)
(-0.00273276 -0.00232497 0)
(-0.00212256 -0.0019496 0)
(-0.00159757 -0.00157977 0)
(-0.00115627 -0.00122179 0)
(-0.000795868 -0.000882799 0)
(-0.000512218 -0.000570853 0)
(-0.00029973 -0.000295128 0)
(-0.000151301 -6.60853e-05 0)
(-5.82491e-05 0.000104293 0)
(-1.01987e-05 0.000202308 0)
(5.41618e-06 0.000212237 0)
(3.42466e-06 0.000114764 0)
(-1.03862e-05 2.52395e-05 0)
(-8.08771e-05 0.000214358 0)
(-0.000246675 0.000502786 0)
(-0.00050217 0.000860483 0)
(-0.000846947 0.00126437 0)
(-0.00128239 0.00169571 0)
(-0.00180836 0.00213947 0)
(-0.00242344 0.00258387 0)
(-0.0031253 0.00301975 0)
(-0.00391078 0.00344017 0)
(-0.00477601 0.00383996 0)
(-0.00571654 0.0042154 0)
(-0.00672746 0.00456392 0)
(-0.00780354 0.00488389 0)
(-0.00893928 0.00517437 0)
(-0.010129 0.00543501 0)
(-0.0113671 0.00566586 0)
(-0.0126478 0.00586728 0)
(-0.0139654 0.00603985 0)
(-0.0153142 0.0061843 0)
(-0.0166886 0.00630143 0)
(-0.0180833 0.00639207 0)
(-0.0194928 0.00645708 0)
(-0.020912 0.00649726 0)
(-0.0223358 0.00651337 0)
(-0.023759 0.00650611 0)
(-0.0251769 0.0064761 0)
(-0.0265847 0.00642391 0)
(-0.0279775 0.00634999 0)
(-0.0293508 0.00625475 0)
(-0.0307001 0.00613852 0)
(-0.0320207 0.00600159 0)
(-0.0333083 0.0058442 0)
(-0.0345584 0.00566654 0)
(-0.0357667 0.0054688 0)
(-0.0369289 0.00525115 0)
(-0.0380407 0.00501378 0)
(-0.039098 0.00475692 0)
(-0.0400966 0.00448082 0)
(-0.0410324 0.00418578 0)
(-0.0419016 0.00387221 0)
(-0.0427003 0.00354057 0)
(-0.0434248 0.00319143 0)
(-0.0440715 0.00282547 0)
(-0.0446371 0.00244351 0)
(-0.0451183 0.00204648 0)
(-0.0455122 0.00163545 0)
(-0.0458162 0.00121166 0)
(-0.0460277 0.000776484 0)
(-0.0461447 0.000331444 0)
(-0.0461654 -0.000121774 0)
(-0.0460885 -0.000581337 0)
(-0.0459129 -0.00104526 0)
(-0.045638 -0.00151143 0)
(-0.0452637 -0.00197759 0)
(-0.0447904 -0.00244136 0)
(-0.044219 -0.00290026 0)
(-0.0435507 -0.00335173 0)
(-0.0427876 -0.00379313 0)
(-0.0419319 -0.00422174 0)
(-0.0409867 -0.00463486 0)
(-0.0399555 -0.00502974 0)
(-0.0388424 -0.00540368 0)
(-0.0376519 -0.00575401 0)
(-0.0363893 -0.00607813 0)
(-0.0350601 -0.00637354 0)
(-0.0336704 -0.00663789 0)
(-0.0322269 -0.00686896 0)
(-0.0307366 -0.00706473 0)
(-0.0292068 -0.00722339 0)
(-0.0276454 -0.00734337 0)
(-0.0260602 -0.00742335 0)
(-0.0244596 -0.00746231 0)
(-0.022852 -0.00745953 0)
(-0.021246 -0.00741462 0)
(-0.0196501 -0.00732753 0)
(-0.0180729 -0.00719855 0)
(-0.016523 -0.00702837 0)
(-0.0150086 -0.00681804 0)
(-0.0135377 -0.00656898 0)
(-0.0121181 -0.00628305 0)
(-0.0107571 -0.00596249 0)
(-0.00946155 -0.00560993 0)
(-0.00823764 -0.00522847 0)
(-0.00709095 -0.0048216 0)
(-0.00602634 -0.00439331 0)
(-0.00504781 -0.00394801 0)
(-0.00415846 -0.00349068 0)
(-0.00336041 -0.00302681 0)
(-0.00265469 -0.00256252 0)
(-0.0020412 -0.0021046 0)
(-0.00151861 -0.00166063 0)
(-0.00108431 -0.00123905 0)
(-0.000734315 -0.000849323 0)
(-0.000463246 -0.000502078 0)
(-0.000264257 -0.000209305 0)
(-0.000128975 1.54123e-05 0)
(-4.74089e-05 0.000156694 0)
(-8.10968e-06 0.000197049 0)
(1.24162e-06 0.000115263 0)
(-1.3636e-05 7.07182e-05 0)
(-0.000101358 0.000352336 0)
(-0.000303059 0.000734889 0)
(-0.000608464 0.00118787 0)
(-0.00101446 0.00168742 0)
(-0.00152089 0.00221391 0)
(-0.00212628 0.00275139 0)
(-0.0028281 0.00328718 0)
(-0.00362312 0.00381133 0)
(-0.00450744 0.00431619 0)
(-0.0054766 0.00479599 0)
(-0.0065256 0.00524652 0)
(-0.0076491 0.00566486 0)
(-0.00884143 0.00604908 0)
(-0.0100967 0.00639808 0)
(-0.011409 0.00671137 0)
(-0.0127722 0.00698898 0)
(-0.0141802 0.00723125 0)
(-0.015627 0.00743882 0)
(-0.0171065 0.00761247 0)
(-0.0186129 0.00775311 0)
(-0.0201403 0.00786168 0)
(-0.021683 0.00793913 0)
(-0.0232355 0.00798639 0)
(-0.0247922 0.00800433 0)
(-0.0263478 0.00799376 0)
(-0.0278971 0.0079554 0)
(-0.0294347 0.00788989 0)
(-0.0309558 0.00779778 0)
(-0.0324551 0.00767956 0)
(-0.0339279 0.00753561 0)
(-0.0353692 0.00736629 0)
(-0.0367741 0.00717189 0)
(-0.038138 0.00695265 0)
(-0.0394561 0.00670881 0)
(-0.0407238 0.00644061 0)
(-0.0419364 0.0061483 0)
(-0.0430894 0.00583215 0)
(-0.0441784 0.00549252 0)
(-0.045199 0.00512979 0)
(-0.046147 0.00474447 0)
(-0.0470181 0.00433715 0)
(-0.0478084 0.00390856 0)
(-0.0485141 0.00345955 0)
(-0.0491316 0.00299112 0)
(-0.0496573 0.00250443 0)
(-0.0500881 0.00200082 0)
(-0.0504212 0.00148178 0)
(-0.0506539 0.000949005 0)
(-0.0507839 0.000404362 0)
(-0.0508095 -0.000150095 0)
(-0.0507289 -0.000712136 0)
(-0.0505413 -0.00127935 0)
(-0.050246 -0.00184916 0)
(-0.0498428 -0.00241884 0)
(-0.0493321 -0.00298551 0)
(-0.0487149 -0.00354617 0)
(-0.0479925 -0.0040977 0)
(-0.047167 -0.00463692 0)
(-0.046241 -0.00516057 0)
(-0.0452177 -0.00566535 0)
(-0.0441008 -0.00614797 0)
(-0.0428946 -0.00660515 0)
(-0.0416041 -0.00703368 0)
(-0.0402347 -0.00743041 0)
(-0.0387925 -0.00779234 0)
(-0.0372841 -0.00811663 0)
(-0.0357164 -0.00840059 0)
(-0.034097 -0.00864178 0)
(-0.0324337 -0.00883803 0)
(-0.0307349 -0.00898742 0)
(-0.0290092 -0.00908837 0)
(-0.0272654 -0.00913965 0)
(-0.0255125 -0.00914037 0)
(-0.0237598 -0.00909007 0)
(-0.0220164 -0.00898866 0)
(-0.0202916 -0.00883653 0)
(-0.0185945 -0.00863447 0)
(-0.0169341 -0.00838376 0)
(-0.0153189 -0.00808613 0)
(-0.0137574 -0.00774381 0)
(-0.0122574 -0.0073595 0)
(-0.0108264 -0.00693641 0)
(-0.00947107 -0.00647824 0)
(-0.0081975 -0.00598922 0)
(-0.007011 -0.00547413 0)
(-0.00591601 -0.00493831 0)
(-0.00491601 -0.00438766 0)
(-0.00401345 -0.00382874 0)
(-0.00320971 -0.0032688 0)
(-0.00250496 -0.00271584 0)
(-0.00189814 -0.00217867 0)
(-0.0013869 -0.00166708 0)
(-0.000967556 -0.00119189 0)
(-0.000635025 -0.000765167 0)
(-0.000382839 -0.000400339 0)
(-0.000203059 -0.000112468 0)
(-8.61991e-05 8.15757e-05 0)
(-2.20623e-05 0.000162833 0)
(-9.53208e-07 0.000108683 0)
(-1.67694e-05 0.000126548 0)
(-0.000121427 0.000518283 0)
(-0.000358725 0.00100989 0)
(-0.000713894 0.0015708 0)
(-0.00118116 0.00217677 0)
(-0.00175879 0.00280758 0)
(-0.00244392 0.00344668 0)
(-0.0032328 0.00408071 0)
(-0.00412124 0.00469911 0)
(-0.00510452 0.00529366 0)
(-0.00617747 0.00585814 0)
(-0.00733456 0.00638792 0)
(-0.00856992 0.00687977 0)
(-0.00987745 0.00733155 0)
(-0.0112509 0.00774197 0)
(-0.0126839 0.00811049 0)
(-0.01417 0.00843706 0)
(-0.0157028 0.00872206 0)
(-0.017276 0.00896615 0)
(-0.0188831 0.00917021 0)
(-0.020518 0.00933523 0)
(-0.0221745 0.00946224 0)
(-0.0238466 0.00955231 0)
(-0.0255284 0.00960648 0)
(-0.027214 0.00962573 0)
(-0.0288978 0.00961097 0)
(-0.0305741 0.00956302 0)
(-0.0322374 0.00948261 0)
(-0.0338824 0.00937038 0)
(-0.0355036 0.00922687 0)
(-0.0370957 0.00905256 0)
(-0.0386536 0.00884784 0)
(-0.040172 0.00861307 0)
(-0.041646 0.00834855 0)
(-0.0430704 0.00805457 0)
(-0.0444402 0.00773143 0)
(-0.0457506 0.00737945 0)
(-0.0469966 0.00699898 0)
(-0.0481736 0.00659044 0)
(-0.0492768 0.00615434 0)
(-0.0503016 0.0056913 0)
(-0.0512437 0.00520205 0)
(-0.0520988 0.00468748 0)
(-0.0528627 0.00414861 0)
(-0.0535317 0.00358668 0)
(-0.054102 0.00300307 0)
(-0.0545702 0.00239939 0)
(-0.0549332 0.00177744 0)
(-0.0551884 0.00113924 0)
(-0.0553331 0.000487025 0)
(-0.0553655 -0.000176762 0)
(-0.0552839 -0.000849461 0)
(-0.0550872 -0.00152821 0)
(-0.0547746 -0.00220995 0)
(-0.054346 -0.00289143 0)
(-0.0538018 -0.00356926 0)
(-0.053143 -0.00423986 0)
(-0.0523709 -0.00489957 0)
(-0.0514878 -0.00554459 0)
(-0.0504964 -0.00617108 0)
(-0.0494 -0.00677513 0)
(-0.0482025 -0.00735286 0)
(-0.0469086 -0.00790038 0)
(-0.0455234 -0.00841389 0)