/*--------------------------------*- C++ -*----------------------------------*\
| =========                 |                                                 |
| \\      /  F ield         | OpenFOAM: The Open Source CFD Toolbox           |
|  \\    /   O peration     | Version:  2512                                  |
|   \\  /    A nd           | Website:  www.openfoam.com                      |
|    \\/     M anipulation  |                                                 |
\*---------------------------------------------------------------------------*/
FoamFile
{
    version     2.0;
    format      ascii;
    arch        "LSB;label=32;scalar=64";
    class       volScalarField;
    location    "0.2";
    object      p;
}
// * * * * * * * * * * * * * * * * * * * * * * * * * * * * * * * * * * * * * //

dimensions      [0 2 -2 0 0 0 0];

internalField   nonuniform List<scalar> 
10000
(
-9.80044e-09
1.87563e-06
-2.85972e-05
-9.88799e-05
-0.000197078
-0.000309946
-0.000430308
-0.000552324
-0.000671386
-0.000784778
-0.000890879
-0.000988658
-0.00107722
-0.00115508
-0.0012213
-0.00127554
-0.00131698
-0.00134543
-0.00136109
-0.00136318
-0.00135102
-0.00132505
-0.00128588
-0.00123369
-0.00116863
-0.00109078
-0.000999834
-0.000895652
-0.000778793
-0.000649954
-0.000509456
-0.000357472
-0.000194165
-1.98004e-05
0.0001652
0.000360399
0.000565325
0.000779465
0.00100255
0.00123463
0.00147555
0.00172456
0.00198085
0.00224401
0.00251406
0.00279115
0.00307504
0.003365
0.00366006
0.00395916
0.00426131
0.00456591
0.00487274
0.00518154
0.00549152
0.00580121
0.00610889
0.00641321
0.00671331
0.00700835
0.00729728
0.00757893
0.00785202
0.00811539
0.00836806
0.008609
0.00883703
0.00905114
0.00925061
0.00943485
0.00960316
0.00975487
0.00988953
0.0100068
0.0101064
0.0101882
0.010252
0.0102977
0.010325
0.0103344
0.0103267
0.0103033
0.0102652
0.0102133
0.0101483
0.0100713
0.00998373
0.00988697
0.0097828
0.00967324
0.00956046
0.00944679
0.00933494
0.00922828
0.00913099
0.00904761
0.00898226
0.00893856
0.00891986
0.00892277
1.02694e-06
-1.2533e-05
-4.84206e-05
-0.000111816
-0.000194728
-0.000289545
-0.00039092
-0.000494512
-0.000596718
-0.000694338
-0.000785711
-0.000870133
-0.000946325
-0.00101362
-0.00107132
-0.00111796
-0.001153
-0.00117627
-0.00118724
-0.00118584
-0.00117174
-0.0011445
-0.0011044
-0.0010518
-0.000986879
-0.000909784
-0.000820354
-0.000718501
-0.000604654
-0.000479315
-0.0003427
-0.000195064
-3.67674e-05
0.000132004
0.000311164
0.000500465
0.000699326
0.00090706
0.00112334
0.00134812
0.00158109
0.00182166
0.00206931
0.00232386
0.00258535
0.00285348
0.00312769
0.0034075
0.00369218
0.00398071
0.00427215
0.00456586
0.00486155
0.00515902
0.00545757
0.00575562
0.00605153
0.00634429
0.0066331
0.00691697
0.00719483
0.00746561
0.00772809
0.00798119
0.0082241
0.00845581
0.00867507
0.00888093
0.00907296
0.00925067
0.00941322
0.00955983
0.00969019
0.00980421
0.0099017
0.0099825
0.0100464
0.0100933
0.010123
0.0101359
0.0101331
0.010116
0.0100854
0.010042
0.00998647
0.00991999
0.00984396
0.00975987
0.00966933
0.00957414
0.00947623
0.00937776
0.00928126
0.00918984
0.00910705
0.00903632
0.00898035
0.00894141
0.00892311
0.00892597
2.3949e-05
-1.95529e-06
-4.31644e-05
-0.000104179
-0.000179186
-0.000262903
-0.000351471
-0.000442337
-0.000532056
-0.000618235
-0.000699535
-0.000774084
-0.000841347
-0.000900885
-0.000951461
-0.000992262
-0.00102245
-0.00104107
-0.00104805
-0.00104338
-0.00102691
-0.000998379
-0.000957636
-0.000904782
-0.000840112
-0.000763743
-0.000675542
-0.000575602
-0.000464337
-0.000341936
-0.000208433
-6.4235e-05
9.01011e-05
0.000254452
0.0004289
0.000613223
0.000806852
0.00100918
0.00121993
0.0014389
0.00166542
0.00189886
0.00213913
0.00238641
0.0026407
0.00290154
0.0031681
0.00343978
0.003716
0.00399577
0.00427821
0.004563
0.00484992
0.00513855
0.00542797
0.0057167
0.00600328
0.0062869
0.0065669
0.00684217
0.00711146
0.00737371
0.00762793
0.00787314
0.00810841
0.00833272
0.00854496
0.00874437
0.00893061
0.00910325
0.00926136
0.00940409
0.00953111
0.00964253
0.00973834
0.00981837
0.00988235
0.00993007
0.00996156
0.00997734
0.00997851
0.0099662
0.00994118
0.00990401
0.00985545
0.00979672
0.0097293
0.00965462
0.00957409
0.00948927
0.00940194
0.00931415
0.00922839
0.00914748
0.00907432
0.0090114
0.00896061
0.00892397
0.0089057
0.00890826
5.89423e-05
2.32333e-05
-2.29083e-05
-8.28249e-05
-0.000153575
-0.000230402
-0.000311103
-0.000392616
-0.000472889
-0.000550858
-0.000624344
-0.000692204
-0.000753486
-0.000806896
-0.000851965
-0.000888048
-0.000914004
-0.00092895
-0.000932601
-0.000924883
-0.000905903
-0.000875659
-0.000834025
-0.000781115
-0.000716929
-0.000641269
-0.000554243
-0.000456165
-0.000347196
-0.000227323
-9.66393e-05
4.44246e-05
0.000195432
0.000356321
0.000527011
0.000707025
0.000895883
0.00109336
0.00129929
0.00151322
0.00173431
0.00196186
0.00219594
0.00243691
0.00268481
0.00293925
0.00319949
0.00346468
0.00373386
0.00400609
0.00428082
0.00455803
0.00483762
0.00511898
0.00540087
0.0056818
0.00596072
0.00623704
0.00650997
0.00677819
0.0070405
0.00729595
0.00754359
0.00778239
0.00801138
0.00822961
0.00843609
0.00863026
0.0088119
0.0089805
0.00913502
0.00927457
0.00939898
0.00950846
0.00960304
0.00968243
0.00974639
0.00979484
0.00982795
0.00984627
0.00985071
0.00984218
0.00982129
0.00978861
0.0097451
0.00969215
0.00963124
0.00956359
0.0094903
0.00941281
0.00933296
0.00925282
0.00917467
0.00910083
0.00903346
0.00897446
0.00892556
0.00888894
0.00886853
0.00886691
0.000105071
6.07889e-05
9.62505e-06
-5.07054e-05
-0.000118535
-0.000191356
-0.000266268
-0.000341253
-0.000415058
-0.000485961
-0.000553205
-0.000615878
-0.000672153
-0.000720888
-0.000761464
-0.000793097
-0.000815022
-0.000826721
-0.000827533
-0.000817322
-0.000796227
-0.000764273
-0.000721637
-0.000668531
-0.000604652
-0.000529724
-0.000444011
-0.000347716
-0.000240702
-0.000123037
4.91048e-06
0.000142831
0.000290649
0.000448338
0.000615563
0.00079168
0.00097627
0.00116929
0.00137055
0.00157943
0.0017952
0.00201745
0.00224615
0.00248146
0.00272342
0.0029718
0.00322602
0.00348516
0.00374794
0.00401327
0.00428099
0.00455141
0.00482433
0.00509884
0.00537372
0.0056477
0.00591987
0.00618974
0.00645636
0.0067183
0.00697435
0.00722377
0.00746564
0.00769875
0.00792204
0.0081347
0.00833605
0.0085257
0.00870335
0.00886833
0.00901956
0.00915633
0.00927863
0.00938669
0.00948043
0.00955948
0.0096236
0.00967285
0.00970752
0.00972809
0.00973526
0.00972971
0.00971197
0.00968277
0.00964334
0.00959519
0.00953964
0.00947761
0.00940997
0.00933817
0.0092642
0.00919011
0.00911777
0.0090488
0.00898477
0.00892734
0.00887842
0.00884019
0.00881536
0.00880571
0.000164188
0.000109983
5.30161e-05
-8.88996e-06
-7.6389e-05
-0.000146327
-0.000217661
-0.000288817
-0.000358114
-0.000424425
-0.00048715
-0.000545372
-0.000597749
-0.000642914
-0.000679871
-0.000707882
-0.000726281
-0.000734764
-0.000732956
-0.000720632
-0.000697867
-0.000664719
-0.000621365
-0.000567949
-0.000504226
-0.000430051
-0.000345622
-0.000250877
-0.000145543
-2.98361e-05
9.57014e-05
0.000230868
0.000375781
0.000530348
0.00069409
0.000866515
0.0010474
0.00123655
0.0014335
0.00163756
0.00184821
0.00206543
0.00228927
0.00251958
0.0027563
0.00299933
0.00324803
0.00350132
0.00375798
0.00401715
0.00427882
0.00454333
0.00481025
0.0050785
0.00534699
0.00561477
0.0058811
0.00614532
0.00640633
0.00666266
0.00691328
0.00715749
0.00739428
0.0076223
0.00784049
0.00804823
0.00824509
0.00843078
0.0086049
0.00876666
0.00891502
0.00904948
0.00917021
0.00927743
0.00937083
0.00944987
0.00951435
0.00956447
0.00960053
0.0096229
0.00963203
0.00962849
0.00961295
0.00958637
0.00955018
0.00950586
0.00945446
0.00939665
0.00933325
0.00926575
0.00919619
0.00912647
0.00905796
0.00899169
0.00892886
0.00887118
0.0088207
0.00877934
0.00874821
0.00872797
0.000233743
0.000168565
0.000105004
3.94877e-05
-2.90217e-05
-9.84162e-05
-0.000167999
-0.000236665
-0.000303422
-0.000367251
-0.000427026
-0.000481932
-0.000531153
-0.000573452
-0.000607595
-0.000632746
-0.000648479
-0.000654329
-0.00065013
-0.000635851
-0.000611626
-0.000577608
-0.000533805
-0.000480141
-0.000416599
-0.000343182
-0.000259797
-0.000166222
-6.23847e-05
5.13994e-05
0.000174794
0.000307748
0.000450201
0.000601828
0.000762209
0.000931156
0.00110862
0.00129419
0.00148715
0.00168688
0.00189305
0.00210569
0.00232491
0.00255064
0.00278282
0.00302124
0.00326504
0.00351296
0.00376399
0.00401769
0.00427425
0.00453374
0.00479538
0.00505807
0.00532101
0.00558348
0.00584473
0.00610395
0.00635996
0.00661142
0.00685739
0.00709715
0.00732953
0.00755309
0.00776684
0.00797036
0.00816338
0.00834561
0.00851657
0.00867547
0.00882144
0.00895421
0.00907407
0.00918105
0.00927453
0.00935381
0.00941874
0.00946965
0.00950686
0.00953052
0.00954087
0.00953851
0.00952437
0.00949968
0.00946591
0.00942434
0.00937579
0.00932084
0.00926038
0.00919587
0.00912923
0.00906209
0.00899536
0.00892979
0.00886655
0.00880732
0.00875395
0.00870798
0.00866907
0.00863689
0.000310673
0.000233644
0.000162297
9.27099e-05
2.16174e-05
-4.9475e-05
-0.000119002
-0.000186765
-0.000252454
-0.000315021
-0.000373159
-0.000426055
-0.000472928
-0.000512699
-0.000544372
-0.000567274
-0.000580923
-0.000584856
-0.000578894
-0.000563111
-0.000537746
-0.000502988
-0.000458736
-0.000404951
-0.000341773
-0.00026901
-0.000186282
-9.35434e-05
8.94839e-06
0.000120963
0.000242474
0.000373472
0.000513635
0.000662527
0.000819951
0.000985874
0.00116012
0.00134215
0.00153129
0.00172712
0.00192943
0.0021381
0.00235316
0.00257473
0.00280289
0.00303721
0.00327656
0.0035197
0.00376592
0.00401506
0.00426733
0.00452251
0.00477956
0.00503746
0.00529567
0.00555363
0.00581048
0.00606525
0.00631681
0.00656403
0.00680608
0.00704207
0.00727064
0.0074903
0.00770025
0.00790027
0.00809011
0.00826935
0.00843746
0.00859386
0.00873801
0.00886983
0.00898949
0.00909671
0.00919056
0.0092702
0.00933556
0.00938711
0.00942512
0.0094496
0.00946069
0.00945903
0.00944579
0.00942236
0.00939012
0.00935018
0.00930324
0.0092499
0.00919114
0.00912839
0.00906324
0.00899694
0.0089302
0.00886381
0.00879905
0.00873729
0.0086799
0.00862812
0.00858054
0.00853585
0.000392344
0.000302379
0.000222611
0.000148005
7.28287e-05
-8.59416e-07
-7.21683e-05
-0.000140803
-0.000206485
-0.000268523
-0.000326031
-0.000377922
-0.000423176
-0.000461021
-0.000490753
-0.000511736
-0.000523483
-0.0005259
-0.000518784
-0.000502088
-0.000476009
-0.000440683
-0.000396088
-0.000342356
-0.000279551
-0.000207206
-0.000124912
-3.2917e-05
6.84006e-05
0.000179024
0.000299002
0.00042812
0.000565962
0.000712291
0.000867146
0.00103046
0.00120179
0.00138045
0.001566
0.00175828
0.0019571
0.00216226
0.00237378
0.0025918
0.0028164
0.00304696
0.00328224
0.00352121
0.00376351
0.0040091
0.00425793
0.00450942
0.00476249
0.00501636
0.00527067
0.00552482
0.00577779
0.00602857
0.00627624
0.0065199
0.00675866
0.00699146
0.00721676
0.00743314
0.00764
0.00783722
0.00802447
0.00820116
0.00836684
0.00852124
0.00866421
0.00879574
0.0089157
0.00902338
0.00911763
0.00919764
0.00926344
0.00931551
0.00935408
0.00937907
0.00939062
0.00938945
0.00937681
0.00935407
0.00932249
0.00928311
0.00923666
0.00918384
0.00912566
0.00906344
0.00899846
0.00893164
0.00886363
0.00879534
0.00872798
0.00866261
0.00860022
0.00854196
0.00848532
0.00842802
0.000475715
0.000372695
0.000283621
0.000202204
0.000122498
4.51012e-05
-2.92688e-05
-0.000100008
-0.000166651
-0.000228995
-0.000286401
-0.00033768
-0.000381897
-0.000418474
-0.000446811
-0.000466317
-0.00047663
-0.000477756
-0.000469749
-0.000452553
-0.000426099
-0.000390443
-0.000345815
-0.000292331
-0.000229692
-0.000157455
-7.55863e-05
1.55814e-05
0.000115906
0.000225481
0.000344158
0.000471486
0.000607135
0.000751165
0.000903736
0.00106464
0.00123323
0.00140887
0.00159127
0.00178039
0.00197602
0.00217798
0.00238643
0.00260153
0.00282305
0.00305016
0.00328177
0.00351727
0.00375659
0.0039995
0.00424553
0.00449391
0.00474372
0.00499437
0.00524553
0.00549641
0.00574593
0.00599325
0.0062377
0.00647844
0.00671449
0.00694457
0.00716716
0.00738097
0.00758553
0.00778064
0.00796582
0.00814045
0.00830425
0.00845731
0.00859976
0.00873148
0.00885192
0.00896001
0.00905451
0.00913478
0.00920101
0.00925364
0.00929275
0.00931818
0.00933011
0.0093293
0.00931695
0.00929431
0.00926259
0.00922287
0.00917604
0.00912285
0.00906425
0.00900144
0.00893551
0.00886722
0.00879715
0.00872606
0.00865495
0.00858475
0.00851654
0.00845142
0.00838554
0.00831561
0.000557821
0.000441761
0.000342565
0.000254083
0.000168434
8.6297e-05
8.33474e-06
-6.52093e-05
-0.000133849
-0.00019724
-0.000254844
-0.000305826
-0.000349338
-0.000384936
-0.000412279
-0.000430815
-0.000440267
-0.000440602
-0.00043202
-0.00041444
-0.000387744
-0.000352126
-0.000307801
-0.000254539
-0.000191866
-0.000119683
-3.83089e-05
5.20686e-05
0.000151592
0.000260252
0.000377604
0.000503181
0.000636949
0.000779138
0.000929711
0.00108824
0.0012542
0.00142718
0.00160692
0.00179326
0.00198601
0.00218519
0.00239106
0.0026036
0.00282231
0.00304632
0.00327487
0.00350775
0.00374488
0.0039857
0.00422943
0.0044753
0.0047226
0.00497083
0.00521948
0.00546762
0.00571422
0.00595871
0.00620063
0.00643911
0.00667295
0.0069008
0.00712126
0.00733326
0.00753629
0.00772996
0.00791364
0.00808678
0.0082494
0.00840187
0.00854434
0.00867645
0.00879729
0.00890557
0.00900014
0.00908058
0.00914724
0.00920048
0.00924022
0.0092662
0.00927854
0.00927795
0.00926551
0.00924242
0.00920991
0.00916916
0.00912122
0.00906691
0.00900708
0.0089428
0.00887507
0.00880453
0.00873159
0.00865675
0.0085808
0.00850486
0.00843032
0.00835807
0.00828274
0.00820014
0.000635606
0.000506507
0.000397756
0.000301502
0.000208988
0.000121531
3.94638e-05
-3.73258e-05
-0.000108501
-0.000173362
-0.000231596
-0.000282729
-0.000325941
-0.000360805
-0.000387293
-0.000405214
-0.000414271
-0.000414349
-0.000405503
-0.000387698
-0.000361018
-0.000325738
-0.00028174
-0.000228494
-0.000165804
-9.3958e-05
-1.31588e-05
7.66782e-05
0.000175562
0.000283161
0.000399042
0.000523051
0.000655314
0.000795931
0.00094467
0.00110105
0.00126468
0.0014353
0.00161264
0.00179652
0.00198686
0.00218378
0.00238748
0.00259767
0.00281375
0.0030351
0.00326133
0.00349238
0.00372791
0.00396705
0.00420893
0.00445293
0.00469849
0.004945
0.00519173
0.00543769
0.00568205
0.0059245
0.00616463
0.00640142
0.00663355
0.00685971
0.00707872
0.00728966
0.00749189
0.00768477
0.00786756
0.00803992
0.00820215
0.00835469
0.00849753
0.00863002
0.00875105
0.00885932
0.00895389
0.00903452
0.00910162
0.00915547
0.00919586
0.00922235
0.00923499
0.00923439
0.00922154
0.00919762
0.00916387
0.00912154
0.00907183
0.00901568
0.00895396
0.00888761
0.00881747
0.00874393
0.00866716
0.00858752
0.00850593
0.00842382
0.00834269
0.00826304
0.00817812
0.008083
0.000706846
0.000565157
0.000446672
0.000342357
0.000243098
0.000149825
6.30804e-05
-1.7326e-05
-9.10808e-05
-0.000157663
-0.000216911
-0.000268517
-0.000311866
-0.000346519
-0.000372507
-0.000390054
-0.000398958
-0.000398986
-0.00039006
-0.000372391
-0.000346144
-0.000311207
-0.000267244
-0.000214009
-0.000151616
-8.02803e-05
2.35177e-08
8.93454e-05
0.000187443
0.000293874
0.000408383
0.000531056
0.000662025
0.000801195
0.00094823
0.00110273
0.00126441
0.00143299
0.0016082
0.00178996
0.00197836
0.00217352
0.00237536
0.0025834
0.00279716
0.00301641
0.00324105
0.00347086
0.00370518
0.00394297
0.00418349
0.00442632
0.00467085
0.00491626
0.00516164
0.00540611
0.00564909
0.00589036
0.00612939
0.00636503
0.00659597
0.00682108
0.00703937
0.00724996
0.00745205
0.00764481
0.00782747
0.00799988
0.00816246
0.0083156
0.008459
0.00859178
0.00871278
0.00882093
0.00891551
0.00899645
0.00906404
0.00911842
0.00915922
0.00918591
0.0091985
0.00919762
0.00918417
0.00915921
0.00912392
0.0090796
0.00902755
0.00896897
0.00890481
0.00883589
0.0087627
0.00868533
0.00860382
0.00851868
0.00843114
0.0083427
0.00825471
0.00816734
0.00807291
0.0079657
0.000770598
0.00061605
0.000487442
0.000375643
0.000269558
0.000170288
7.86657e-05
-5.53704e-06
-8.21219e-05
-0.000150716
-0.000211189
-0.000263481
-0.000307288
-0.000342272
-0.000368435
-0.000385943
-0.000394773
-0.000394798
-0.000386063
-0.000368811
-0.000343039
-0.000308326
-0.000264356
-0.000211296
-0.000149427
-7.86786e-05
1.13545e-06
8.9811e-05
0.000186868
0.000292035
0.000405376
0.000527016
0.000656841
0.000794601
0.000940051
0.00109295
0.00125302
0.0014199
0.00159332
0.00177341
0.00196036
0.00215412
0.00235434
0.00256051
0.00277246
0.00299029
0.00321393
0.00344287
0.00367619
0.00391297
0.00415268
0.00439499
0.0046391
0.00488396
0.00512864
0.00537244
0.00561498
0.00585591
0.00609452
0.00632959
0.00655997
0.00678475
0.00700308
0.00721401
0.0074166
0.00760992
0.00779326
0.00796655
0.00813021
0.00828441
0.00842856
0.00856161
0.00868254
0.00879056
0.00888525
0.00896656
0.00903458
0.0090892
0.00912996
0.00915639
0.00916859
0.00916723
0.00915309
0.00912697
0.00908993
0.00904329
0.00898854
0.00892709
0.00886003
0.00878796
0.00871095
0.00862886
0.0085419
0.00845102
0.00835758
0.00826271
0.00816746
0.00807213
0.00796838
0.00784967
0.000825466
0.00065794
0.000519674
0.000400109
0.000287252
0.000182184
8.57941e-05
-2.17868e-06
-8.18925e-05
-0.000152883
-0.000214925
-0.000268228
-0.000312824
-0.000348501
-0.000375268
-0.000393147
-0.000402152
-0.00040231
-0.000393989
-0.000377306
-0.000351807
-0.000317083
-0.000273306
-0.000220824
-0.000159588
-8.93241e-05
-1.01079e-05
7.75816e-05
0.000173402
0.000277438
0.000389878
0.000510619
0.000639317
0.000775762
0.00091988
0.00107147
0.00123016
0.0013956
0.0015677
0.0017467
0.00193266
0.00212527
0.00232407
0.00252879
0.00273957
0.00295662
0.00317965
0.00340791
0.00364046
0.00387663
0.00411609
0.00435841
0.00460259
0.00484745
0.00509214
0.00533617
0.00557914
0.00582054
0.00605942
0.0062946
0.00652515
0.00675039
0.00696955
0.00718156
0.00738533
0.00757991
0.0077647
0.00793965
0.00810505
0.00826074
0.0084059
0.00853942
0.0086605
0.00876865
0.00886359
0.00894519
0.00901334
0.00906771
0.00910788
0.00913368
0.00914535
0.00914347
0.00912856
0.00910115
0.00906213
0.00901295
0.00895529
0.00889066
0.00882018
0.00874424
0.0086626
0.00857512
0.00848237
0.00838569
0.00828628
0.00818471
0.00808189
0.00797852
0.00786566
0.00773595
0.000869817
0.000690268
0.000542298
0.000414936
0.000295551
0.000184799
8.36811e-05
-8.09649e-06
-9.0872e-05
-0.000164469
-0.000228653
-0.000283462
-0.000329172
-0.000365938
-0.000393556
-0.000411916
-0.000421321
-0.000422123
-0.000414434
-0.000398009
-0.000372522
-0.000338019
-0.000294851
-0.000243056
-0.000182338
-0.000112658
-3.44066e-05
5.20666e-05
0.000146812
0.00025004
0.000361704
0.000481476
0.000609054
0.000744402
0.000887481
0.00103797
0.00119549
0.00135985
0.00153116
0.00170958
0.00189488
0.00208655
0.00228427
0.0024881
0.00269835
0.00291508
0.00313773
0.00336545
0.00359753
0.00383356
0.00407327
0.00431604
0.0045607
0.0048061
0.00505159
0.00529672
0.00554097
0.00578356
0.0060234
0.00625943
0.006491
0.00671761
0.0069384
0.0071522
0.00735782
0.00755438
0.0077414
0.00791878
0.00808651
0.00824409
0.00839052
0.00852486
0.00864653
0.00875522
0.00885061
0.00893237
0.0090002
0.00905379
0.009093
0.009118
0.00912914
0.00912672
0.00911088
0.00908189
0.00904068
0.00898884
0.00892815
0.00886006
0.00878555
0.0087049
0.00861794
0.00852476
0.00842621
0.00832364
0.0082179
0.00810927
0.00799877
0.00788735
0.0077655
0.00762513
0.000902977
0.000711786
0.000554411
0.000419674
0.000293817
0.000177513
7.16304e-05
-2.4077e-05
-0.00011001
-0.000186237
-0.000252783
-0.000309747
-0.000357182
-0.000395171
-0.000423676
-0.000442877
-0.000453133
-0.000454729
-0.000447459
-0.000431108
-0.000405846
-0.000371979
-0.000329553
-0.00027832
-0.000218186
-0.000149452
-7.2414e-05
1.29938e-05
0.000107013
0.000209625
0.000320487
0.000439265
0.00056586
0.000700328
0.000842531
0.000992077
0.00114872
0.00131248
0.00148349
0.00166167
0.00184652
0.00203752
0.00223465
0.00243822
0.00264848
0.00286518
0.00308758
0.00331499
0.00354702
0.00378344
0.00402385
0.00426742
0.00451293
0.00475945
0.00500651
0.00525358
0.00549985
0.00574428
0.00598579
0.00622356
0.00645714
0.00668601
0.00690917
0.00712534
0.00733342
0.00753268
0.00772271
0.00790326
0.00807389
0.00823375
0.00838183
0.0085174
0.00864014
0.00874976
0.00884573
0.00892749
0.00899467
0.00904722
0.00908537
0.00910957
0.00912013
0.00911698
0.00909986
0.00906896
0.00902532
0.00897071
0.00890688
0.00883509
0.00875601
0.00866995
0.00857718
0.0084782
0.00837384
0.0082651
0.00815263
0.00803677
0.00791864
0.00779921
0.00766844
0.00751769
0.00092414
0.000721425
0.000555289
0.000413412
0.000281375
0.000159637
4.88947e-05
-5.07985e-05
-0.000139996
-0.000219157
-0.00028838
-0.000347719
-0.000397133
-0.000436601
-0.000466368
-0.000486793
-0.000498114
-0.000500336
-0.000493316
-0.00047727
-0.000452647
-0.000419562
-0.000377758
-0.000327121
-0.000267903
-0.000200371
-0.000124403
-3.96802e-05
5.38305e-05
0.000155781
0.000265786
0.000383705
0.000509545
0.000643259
0.000784628
0.000933401
0.00108958
0.00125326
0.00142434
0.00160242
0.00178695
0.00197766
0.0021748
0.00237871
0.00258934
0.00280616
0.00302851
0.00325603
0.0034886
0.00372591
0.00396737
0.00421202
0.00445884
0.00470716
0.00495655
0.00520624
0.00545508
0.00570194
0.00594592
0.00618643
0.00642305
0.00665504
0.00688121
0.00710029
0.00731143
0.00751409
0.00770786
0.00789217
0.00806618
0.00822878
0.00837901
0.00851635
0.00864062
0.00875142
0.00884799
0.00892962
0.00899609
0.00904772
0.00908502
0.00910847
0.00911816
0.00911376
0.00909489
0.0090618
0.00901566
0.00895819
0.008891
0.00881514
0.00873111
0.00863934
0.00854056
0.00843562
0.00832522
0.00820995
0.00809053
0.00796747
0.00784176
0.00771433
0.00757479
0.00741407
0.000932051
0.000718709
0.000544167
0.000395226
0.000257041
0.000130148
1.48594e-05
-8.9086e-05
-0.00018193
-0.000264211
-0.000336281
-0.000398136
-0.000449645
-0.000490892
-0.000522334
-0.000544175
-0.000556425
-0.000559116
-0.000552578
-0.000537305
-0.000513539
-0.000481113
-0.00043991
-0.00039019
-0.000332199
-0.000265748
-0.000190418
-0.000106103
-1.31442e-05
8.80223e-05
0.000197231
0.000314508
0.000439748
0.000572732
0.000713338
0.000861643
0.00101784
0.00118183
0.00135309
0.00153109
0.00171553
0.00190647
0.00210422
0.00230886
0.00252002
0.00273713
0.00295985
0.00318813
0.00342183
0.00366045
0.00390323
0.00414935
0.00439808
0.00464893
0.00490129
0.00515405
0.00540592
0.00565587
0.00590322
0.00614748
0.00638802
0.00662382
0.00685357
0.0070762
0.00729114
0.00749799
0.00769614
0.00788466
0.00806242
0.00822819
0.00838113
0.00852084
0.00864708
0.00875925
0.00885646
0.00893803
0.00900404
0.00905513
0.0090919
0.00911458
0.00912296
0.00911667
0.00909554
0.00906009
0.00901147
0.00895111
0.00888031
0.00879997
0.00871067
0.00861307
0.00850819
0.00839703
0.00828018
0.00815819
0.00803182
0.00790152
0.00776813
0.0076327
0.00748457
0.00731436
0.000926695
0.000702794
0.000519907
0.000364374
0.000220131
8.79861e-05
-3.18202e-05
-0.000139949
-0.000236674
-0.000322369
-0.000397374
-0.000461775
-0.000515564
-0.000558949
-0.000592186
-0.000615284
-0.000628279
-0.000631634
-0.000626032
-0.000611773
-0.000588769
-0.00055698
-0.000516702
-0.000468247
-0.000411414
-0.000345634
-0.000270649
-0.000186789
-9.45442e-05
5.88105e-06
0.000114522
0.000231303
0.000355904
0.00048816
0.000628287
0.000776614
0.000933199
0.00109754
0.00126891
0.00144694
0.0016317
0.00182343
0.00202218
0.00222768
0.00243948
0.00265728
0.00288104
0.00311077
0.00334613
0.00358636
0.00383081
0.00407896
0.00433033
0.00458437
0.00484016
0.00509636
0.00535177
0.0056056
0.00585729
0.00610619
0.00635132
0.00659144
0.00682533
0.00705226
0.00727188
0.00748373
0.00768687
0.00788001
0.00806184
0.00823122
0.0083874
0.00853001
0.00865861
0.00877241
0.00887049
0.0089524
0.00901848
0.0090695
0.00910593
0.00912767
0.00913434
0.00912572
0.00910205
0.00906412
0.00901299
0.00894967
0.00887502
0.00878986
0.00869503
0.00859145
0.00848021
0.00836241
0.0082388
0.00811001
0.00797661
0.0078388
0.00769752
0.00755411
0.00739755
0.00721814
0.000907665
0.000673025
0.000482073
0.000319983
0.000169677
3.21981e-05
-9.22588e-05
-0.00020461
-0.000305304
-0.000394513
-0.000472487
-0.000539551
-0.000595869
-0.000641452
-0.000676229
-0.000700376
-0.000714325
-0.00071881
-0.000714343
-0.000700957
-0.000678684
-0.00064788
-0.000608917
-0.000561673
-0.000505562
-0.000440161
-0.000365647
-0.0002825
-0.000190957
-9.10072e-05
1.7247e-05
0.000133465
0.000257359
0.000389126
0.000529279
0.000678027
0.000835026
0.000999529
0.00117095
0.00134932
0.00153492
0.00172778
0.00192762
0.00213404
0.0023468
0.00256592
0.00279147
0.00302325
0.00326062
0.00350285
0.00374955
0.0040005
0.00425525
0.00451298
0.00477252
0.00503259
0.00529222
0.00555083
0.00580776
0.006062
0.00631223
0.00655716
0.00679586
0.00702794
0.00725311
0.00747066
0.0076793
0.00787747
0.00806381
0.00823731
0.00839727
0.00854321
0.00867452
0.0087903
0.00888976
0.00897269
0.00903955
0.00909093
0.00912704
0.00914761
0.00915234
0.00914134
0.00911519
0.00907478
0.00902097
0.00895438
0.00887556
0.0087853
0.00868469
0.00857486
0.00845692
0.00833209
0.00820145
0.00806562
0.00792477
0.00777899
0.00762961
0.00747823
0.00731329
0.00712464
0.000874113
0.000628854
0.000429814
0.000261259
0.000104956
-3.80981e-05
-0.000167479
-0.000284216
-0.000388815
-0.000481491
-0.000562611
-0.000632537
-0.000691315
-0.000738713
-0.000774805
-0.000800171
-0.000815503
-0.000821319
-0.000817839
-0.000805272
-0.000784077
-0.000754686
-0.000717014
-0.000670534
-0.000614825
-0.000549934
-0.000476186
-0.000393784
-0.000302712
-0.000203076
-9.52786e-05
2.02961e-05
0.000143695
0.000275462
0.000416046
0.000565244
0.000722396
0.000886896
0.00105858
0.00123771
0.00142445
0.0016185
0.00181942
0.00202697
0.00224128
0.00246247
0.0026904
0.00292459
0.00316432
0.0034091
0.00365886
0.00391346
0.00417222
0.00443405
0.00469775
0.00496229
0.00522698
0.00549121
0.00575404
0.00601407
0.00626986
0.00652026
0.00676465
0.0070028
0.00723429
0.00745809
0.0076726
0.00787622
0.00806764
0.00824591
0.00841025
0.00855999
0.00869441
0.00881268
0.00891419
0.00899891
0.00906721
0.0091193
0.00915512
0.00917442
0.00917727
0.00916412
0.00913573
0.00909288
0.00903614
0.0089659
0.00888253
0.00878685
0.00868014
0.00856371
0.00843876
0.00830664
0.00816857
0.00802502
0.00787594
0.00772169
0.00756403
0.00740461
0.00723119
0.00703304
0.000825144
0.000569546
0.000362319
0.00018736
2.50292e-05
-0.000123834
-0.000258349
-0.0003795
-0.000487987
-0.000584274
-0.000668715
-0.0007414
-0.000802235
-0.000851198
-0.000888795
-0.000915741
-0.00093256
-0.000939525
-0.000937007
-0.000925612
-0.000905871
-0.000877827
-0.000841022
-0.000795031
-0.00073987
-0.000675779
-0.000602825
-0.000520928
-0.000430171
-0.00033096
-0.000223753
-0.000108636
1.47593e-05
0.000146938
0.000287965
0.000437301
0.000594362
0.000758961
0.000931258
0.00111145
0.00129935
0.0014945
0.0016966
0.0019058
0.00212235
0.00234618
0.00257685
0.00281374
0.00305631
0.00330439
0.00355804
0.00381696
0.00408022
0.00434661
0.00461512
0.004885
0.00515563
0.00542617
0.00569529
0.00596143
0.00622327
0.00647994
0.00673101
0.00697616
0.00721466
0.00744516
0.00766595
0.00787552
0.00807267
0.00825641
0.00842579
0.00857992
0.00871803
0.00883943
0.00894373
0.00903091
0.00910108
0.00915415
0.00918984
0.00920814
0.00920945
0.00919451
0.00916406
0.00911868
0.00905871
0.00898441
0.00889617
0.00879483
0.00868171
0.00855835
0.00842615
0.00828642
0.0081402
0.0079879
0.00782975
0.00766659
0.00750037
0.00733268
0.00715051
0.00694262
0.000760047
0.000494396
0.000278945
9.72463e-05
-7.12484e-05
-0.000225859
-0.000365524
-0.000491181
-0.000603759
-0.000703753
-0.0007913
-0.000866387
-0.000929104
-0.00097987
-0.00101928
-0.00104786
-0.00106597
-0.00107406
-0.00107285
-0.00106297
-0.00104458
-0.00101739
-0.000981127
-0.000935767
-0.000881479
-0.000818248
-0.00074586
-0.000664307
-0.000573979
-0.000475362
-0.000368609
-0.00025348
-0.000129662
2.94445e-06
0.000144066
0.000293225
0.000450232
0.000615247
0.000788426
0.000969671
0.0011586
0.00135488
0.00155858
0.00177002
0.00198931
0.00221608
0.00244968
0.00268964
0.00293571
0.00318788
0.00344612
0.00370987
0.00397806
0.00424962
0.00452379
0.00479996
0.00507734
0.00535471
0.00563046
0.00590312
0.00617167
0.00643553
0.00669422
0.00694713
0.00719319
0.00743086
0.00765848
0.00787468
0.0080783
0.00826821
0.00844326
0.00860243
0.00874494
0.00887024
0.008978
0.00906812
0.00914048
0.00919479
0.00923075
0.00924851
0.00924876
0.00923236
0.00919994
0.00915184
0.00908828
0.00900957
0.00891621
0.00880903
0.00868936
0.00855888
0.00841913
0.00827119
0.00811585
0.00795381
0.00778597
0.00761344
0.00743819
0.00726182
0.00707055
0.0068527
0.000677824
0.000402486
0.000178818
-9.90511e-06
-0.000184569
-0.000344826
-0.000489759
-0.000620193
-0.000736958
-0.000840397
-0.000930688
-0.00100808
-0.00107294
-0.00112578
-0.001167
-0.00119703
-0.00121642
-0.00122594
-0.00122632
-0.00121783
-0.00120032
-0.00117367
-0.00113802
-0.00109356
-0.00104019
-0.000977606
-0.000905647
-0.000824581
-0.000734881
-0.00063675
-0.000530007
-0.000414446
-0.000290178
-0.000157492
-1.66246e-05
0.000132345
0.000289585
0.000455278
0.000629335
0.000811462
0.00100139
0.00119911
0.00140491
0.00161904
0.00184129
0.00207105
0.00230779
0.00255133
0.00280161
0.00305856
0.00332191
0.00359092
0.00386461
0.00414214
0.0044229
0.00470616
0.00499083
0.00527541
0.00555827
0.00583816
0.00611436
0.00638635
0.00665346
0.0069147
0.00716877
0.00741413
0.00764928
0.00787292
0.0080838
0.00828056
0.00846191
0.0086268
0.00877448
0.00890443
0.00901627
0.00910976
0.00918465
0.00924058
0.00927733
0.00929512
0.00929472
0.009277
0.00924253
0.00919153
0.00912414
0.00904077
0.00894207
0.00882894
0.00870268
0.00856495
0.00841717
0.00826021
0.00809487
0.00792249
0.00774453
0.00756211
0.00737729
0.00719173
0.00699099
0.00676284
0.000577167
0.000292627
6.10097e-05
-0.00013468
-0.000315583
-0.000481596
-0.000631903
-0.00076714
-0.000887906
-0.000994559
-0.00108759
-0.00116752
-0.00123476
-0.00128962
-0.00133249
-0.00136399
-0.00138495
-0.00139611
-0.00139786
-0.00139027
-0.00137335
-0.00134735
-0.00131259
-0.00126905
-0.00121637
-0.00115427
-0.00108289
-0.00100253
-0.000913373
-0.000815304
-0.000708169
-0.000592168
-0.000467809