/*--------------------------------*- C++ -*----------------------------------*\
| =========                 |                                                 |
| \\      /  F ield         | OpenFOAM: The Open Source CFD Toolbox           |
|  \\    /   O peration     | Version:  2512                                  |
|   \\  /    A nd           | Website:  www.openfoam.com                      |
|    \\/     M anipulation  |                                                 |
\*---------------------------------------------------------------------------*/
FoamFile
{
    version     2.0;
    format      ascii;
    arch        "LSB;label=32;scalar=64";
    class       volScalarField;
    location    "0.2";
    object      p;
}
// * * * * * * * * * * * * * * * * * * * * * * * * * * * * * * * * * * * * * //

dimensions      [0 2 -2 0 0 0 0];

internalField   nonuniform List<scalar> 
10000
(
-7.9129e-09
-9.40655e-06
-4.81411e-05
-0.000110551
-0.000189072
-0.000279282
-0.000376805
-0.000477715
-0.000578632
-0.000676759
-0.000769848
-0.000856066
-0.000933885
-0.00100205
-0.00105959
-0.00110575
-0.00113995
-0.00116178
-0.00117092
-0.00116717
-0.0011504
-0.00112055
-0.00107762
-0.00102164
-0.000952712
-0.000870976
-0.000776571
-0.000669652
-0.000550391
-0.000418986
-0.000275661
-0.000120664
4.57542e-05
0.000223348
0.000411856
0.000610986
0.000820417
0.00103981
0.00126879
0.00150699
0.001754
0.00200939
0.00227267
0.00254336
0.00282088
0.00310466
0.00339408
0.00368849
0.00398721
0.00428951
0.00459461
0.00490169
0.00520991
0.00551839
0.00582626
0.00613258
0.00643638
0.00673669
0.00703247
0.00732272
0.00760641
0.00788252
0.00815007
0.00840805
0.00865549
0.00889142
0.00911492
0.00932512
0.0095212
0.00970243
0.00986815
0.0100178
0.0101508
0.0102667
0.0103653
0.0104464
0.0105098
0.0105556
0.0105839
0.0105952
0.0105898
0.0105683
0.0105315
0.0104802
0.0104155
0.0103386
0.010251
0.0101541
0.0100499
0.00994022
0.00982746
0.00971412
0.00960309
0.00949757
0.00940118
0.00931789
0.00925191
0.00920752
0.00918873
0.00919351
-7.17588e-06
-1.57782e-05
-4.87122e-05
-0.00010104
-0.00016705
-0.000243105
-0.000325694
-0.000411672
-0.000498145
-0.000582606
-0.000662947
-0.000737441
-0.000804637
-0.00086331
-0.000912474
-0.000951346
-0.000979308
-0.000995887
-0.00100072
-0.000993544
-0.000974201
-0.000942584
-0.000898633
-0.000842342
-0.000773763
-0.000692982
-0.000600116
-0.000495303
-0.000378691
-0.000250444
-0.000110757
4.01448e-05
0.000202027
0.000374651
0.00055776
0.000751071
0.000954273
0.00116704
0.00138903
0.00161985
0.0018591
0.00210636
0.00236116
0.002623
0.00289135
0.00316563
0.00344524
0.00372955
0.0040179
0.00430957
0.00460381
0.00489983
0.00519683
0.00549397
0.00579039
0.00608522
0.00637752
0.00666635
0.00695076
0.00722977
0.00750242
0.00776776
0.00802485
0.00827275
0.00851054
0.00873733
0.00895226
0.00915452
0.00934336
0.0095181
0.00967814
0.00982294
0.00995205
0.0100651
0.0101618
0.010242
0.0103057
0.0103529
0.0103838
0.0103987
0.0103982
0.0103827
0.0103531
0.0103102
0.010255
0.0101887
0.0101127
0.0100285
0.00993768
0.00984227
0.00974433
0.00964619
0.00955042
0.00945982
0.00937742
0.00930641
0.00924992
0.00921097
0.00919341
0.00919823
7.85202e-06
-1.29401e-06
-3.11472e-05
-7.78577e-05
-0.000136495
-0.000203767
-0.000276722
-0.000352652
-0.000429093
-0.000503812
-0.000574878
-0.000640673
-0.00069984
-0.000751231
-0.000793884
-0.000827019
-0.000850011
-0.000862364
-0.000863691
-0.000853706
-0.00083221
-0.000799076
-0.00075422
-0.000697606
-0.000629245
-0.000549192
-0.000457539
-0.000354403
-0.000239916
-0.000114229
2.24823e-05
0.000170018
0.000328168
0.000496706
0.000675377
0.000863899
0.00106197
0.00126928
0.00148549
0.00171023
0.00194311
0.00218371
0.00243155
0.00268616
0.00294702
0.00321355
0.00348519
0.00376132
0.00404127
0.00432436
0.00460985
0.00489699
0.005185
0.00547307
0.00576037
0.00604606
0.00632923
0.00660898
0.00688438
0.00715452
0.00741848
0.00767534
0.00792422
0.00816423
0.00839447
0.00861411
0.00882235
0.00901841
0.0092016
0.00937129
0.0095269
0.00966795
0.00979402
0.00990478
0.00999999
0.0100795
0.0101433
0.0101915
0.0102243
0.0102421
0.0102452
0.0102343
0.0102101
0.0101734
0.0101254
0.010067
0.00999953
0.00992454
0.00984358
0.00975843
0.00967104
0.00958352
0.00949817
0.00941746
0.00934399
0.00928042
0.0092293
0.0091931
0.00917569
0.0091795
4.90635e-05
3.40869e-05
2.71684e-06
-4.23825e-05
-9.76454e-05
-0.000160171
-0.000227338
-0.000296779
-0.000366367
-0.000434175
-0.000498474
-0.000557764
-0.000610794
-0.000656502
-0.000693982
-0.000722489
-0.000741416
-0.000750268
-0.000748661
-0.000736301
-0.000712965
-0.000678501
-0.000632817
-0.000575867
-0.000507647
-0.000428186
-0.000337542
-0.000235813
-0.000123122
3.90243e-07
0.00013456
0.000279206
0.000434135
0.000599139
0.000773975
0.000958365
0.00115201
0.0013546
0.00156583
0.00178534
0.00201274
0.00224761
0.0024895
0.00273792
0.00299238
0.00325233
0.00351721
0.00378641
0.00405929
0.00433516
0.00461332
0.00489304
0.00517355
0.00545409
0.00573384
0.00601198
0.00628763
0.00655991
0.00682794
0.00709083
0.00734769
0.00759766
0.00783987
0.00807347
0.00829761
0.00851148
0.0087143
0.00890536
0.00908399
0.0092496
0.00940164
0.00953966
0.00966327
0.00977216
0.00986612
0.00994503
0.0100089
0.0100578
0.010092
0.0101118
0.0101177
0.0101103
0.0100902
0.0100583
0.0100156
0.0099631
0.00990209
0.00983393
0.00976013
0.00968236
0.00960239
0.00952217
0.00944375
0.0093693
0.00930108
0.0092414
0.00919246
0.00915643
0.00913663
0.00913542
0.000112004
8.61927e-05
4.9577e-05
3.12884e-06
-5.13778e-05
-0.000111566
-0.000175188
-0.000240195
-0.000304763
-0.000367249
-0.000426152
-0.000480139
-0.000528063
-0.000568953
-0.000601986
-0.00062646
-0.00064179
-0.000647513
-0.000643263
-0.000628743
-0.000603722
-0.000568039
-0.000521584
-0.000464306
-0.000396197
-0.000317269
-0.000227559
-0.000127144
-1.61367e-05
0.000105337
0.00023713
0.000379071
0.000530979
0.000692658
0.000863878
0.00104437
0.00123385
0.00143202
0.00163857
0.00185318
0.00207544
0.00230495
0.00254127
0.00278394
0.00303247
0.00328632
0.00354495
0.00380776
0.00407412
0.00434338
0.00461484
0.0048878
0.00516151
0.00543521
0.00570814
0.00597946
0.00624834
0.00651393
0.00677536
0.00703177
0.00728231
0.00752614
0.00776243
0.00799035
0.00820908
0.00841784
0.00861589
0.00880253
0.00897714
0.00913914
0.00928802
0.00942335
0.00954476
0.00965197
0.00974478
0.0098231
0.00988693
0.0099364
0.00997172
0.00999324
0.0100014
0.00999679
0.00998009
0.0099521
0.00991375
0.00986607
0.00981025
0.00974757
0.00967945
0.00960742
0.00953313
0.00945832
0.00938483
0.00931456
0.00924948
0.00919156
0.00914271
0.0091048
0.00908011
0.00907013
0.000190295
0.000150996
0.000106593
5.64442e-05
4.7978e-07
-5.94224e-05
-0.000121402
-0.000183775
-0.000244985
-0.000303628
-0.000358431
-0.000408243
-0.000452049
-0.000488976
-0.000518279
-0.00053932
-0.000551562
-0.00055457
-0.000547994
-0.000531552
-0.000505026
-0.000468253
-0.000421116
-0.000363555
-0.000295553
-0.000217114
-0.000128262
-2.90705e-05
8.03631e-05
0.00019993
0.000329501
0.000468923
0.000618019
0.000776599
0.000944442
0.00112129
0.00130688
0.00150093
0.00170315
0.0019132
0.0021307
0.00235525
0.00258643
0.0028238
0.00306688
0.00331515
0.00356808
0.00382506
0.00408551
0.00434878
0.00461419
0.00488107
0.00514868
0.00541629
0.00568313
0.0059484
0.00621128
0.00647096
0.00672657
0.0069773
0.00722231
0.00746077
0.00769189
0.00791486
0.00812889
0.00833321
0.00852711
0.00870993
0.00888105
0.00903992
0.00918605
0.00931904
0.00943852
0.00954424
0.00963601
0.00971374
0.00977746
0.00982729
0.00986345
0.00988628
0.00989623
0.00989385
0.00987982
0.00985491
0.00981999
0.00977606
0.00972425
0.00966576
0.00960192
0.00953412
0.00946388
0.00939276
0.00932241
0.00925448
0.00919069
0.00913268
0.00908211
0.00904059
0.00900907
0.00898782
0.000278771
0.00022461
0.000170869
0.000115292
5.60517e-05
-5.32015e-06
-6.73129e-05
-0.000128614
-0.000187935
-0.000244095
-0.000296024
-0.000342746
-0.00038339
-0.000417189
-0.000443477
-0.000461694
-0.000471364
-0.000472088
-0.000463537
-0.000445447
-0.000417618
-0.0003799
-0.000332184
-0.000274403
-0.000206528
-0.000128551
-4.05009e-05
5.75563e-05
0.000165533
0.000283335
0.000410851
0.000547939
0.000694435
0.000850152
0.00101488
0.00118837
0.00137038
0.00156064
0.00175887
0.00196474
0.00217789
0.00239792
0.00262442
0.00285698
0.00309513
0.00333837
0.00358616
0.00383794
0.0040931
0.00435104
0.00461111
0.00487262
0.00513487
0.00539713
0.00565866
0.00591867
0.00617637
0.00643093
0.00668155
0.0069274
0.00716767
0.00740157
0.0076283
0.00784707
0.00805711
0.00825769
0.00844809
0.00862768
0.00879585
0.00895209
0.0090959
0.00922689
0.00934472
0.00944915
0.00953999
0.00961716
0.0096807
0.00973072
0.00976744
0.00979121
0.00980246
0.00980174
0.00978968
0.00976703
0.00973463
0.00969344
0.00964451
0.00958898
0.00952807
0.00946308
0.00939538
0.00932637
0.00925753
0.0091903
0.00912614
0.00906645
0.00901266
0.00896612
0.00892642
0.0088925
0.000373126
0.000303544
0.000239542
0.000177368
0.000113526
4.92802e-05
-1.40876e-05
-7.56035e-05
-0.000134269
-0.000189106
-0.000239225
-0.000283822
-0.000322165
-0.000353595
-0.000377535
-0.000393505
-0.000401091
-0.000399938
-0.000389753
-0.000370293
-0.000341378
-0.000302876
-0.00025469
-0.000196753
-0.000129029
-5.15118e-05
3.57707e-05
0.00013276
0.000239381
0.000355553
0.000481172
0.000616104
0.000760195
0.000913267
0.00107512
0.00124553
0.00142426
0.00161106
0.00180564
0.0020077
0.00221688
0.00243281
0.00265509
0.00288332
0.00311705
0.00335579
0.00359901
0.00384616
0.00409667
0.00434992
0.00460531
0.00486215
0.00511975
0.0053774
0.00563437
0.00588988
0.00614315
0.00639339
0.00663979
0.00688154
0.00711786
0.00734795
0.00757103
0.00778632
0.00799307
0.00819055
0.00837807
0.00855501
0.00872077
0.00887483
0.00901673
0.00914608
0.00926253
0.00936586
0.00945588
0.00953253
0.00959582
0.00964588
0.00968293
0.0097073
0.00971941
0.00971979
0.00970907
0.00968795
0.00965724
0.00961786
0.00957079
0.0095171
0.00945793
0.00939447
0.00932798
0.00925972
0.00919099
0.00912306
0.00905718
0.0089945
0.0089363
0.00888372
0.00883495
0.00878773
0.000469817
0.000384726
0.000309957
0.000240438
0.00017108
0.000102921
3.70901e-05
-2.57055e-05
-8.47332e-05
-0.000139221
-0.000188451
-0.000231767
-0.000268565
-0.000298306
-0.000320512
-0.000334772
-0.000340729
-0.000338084
-0.000326586
-0.000306028
-0.00027625
-0.000237135
-0.000188596
-0.000130572
-6.30348e-05
1.40158e-05
0.000100555
0.000196533
0.000301886
0.000416543
0.000540409
0.000673353
0.000815224
0.000965862
0.00112508
0.00129267
0.00146841
0.00165205
0.00184333
0.00204193
0.00224753
0.00245977
0.00267827
0.00290263
0.00313244
0.0033672
0.00360639
0.00384949
0.00409594
0.00434514
0.00459649
0.00484933
0.00510298
0.00535673
0.00560985
0.0058616
0.00611119
0.00635785
0.00660078
0.00683919
0.00707229
0.0072993
0.00751944
0.00773195
0.00793607
0.0081311
0.00831634
0.00849118
0.00865503
0.00880738
0.00894776
0.00907579
0.00919114
0.00929356
0.00938289
0.00945905
0.00952206
0.00957204
0.00960919
0.00963385
0.00964643
0.00964744
0.00963747
0.00961721
0.00958745
0.00954903
0.0095029
0.00945006
0.00939156
0.00932853
0.00926208
0.00919338
0.00912356
0.00905377
0.00898505
0.00891837
0.00885485
0.00879549
0.00873719
0.00867653
0.000565938
0.000465538
0.000379793
0.000302443
0.000226943
0.000154132
8.50047e-05
2.00673e-05
-4.01639e-05
-9.51213e-05
-0.000144245
-0.000187006
-0.000222931
-0.000251596
-0.000272619
-0.000285655
-0.000290412
-0.000286641
-0.00027414
-0.00025274
-0.000222311
-0.000182751
-0.000133981
-7.59542e-05
-8.65445e-06
6.79148e-05
0.000153731
0.000248749
0.000352914
0.000466162
0.000588404
0.000719514
0.000859347
0.00100775
0.00116457
0.0013296
0.00150262
0.0016834
0.00187169
0.0020672
0.0022696
0.00247855
0.0026937
0.00291467
0.00314103
0.00337232
0.00360803
0.00384764
0.00409061
0.00433638
0.00458433
0.00483382
0.00508418
0.00533471
0.0055847
0.0058334
0.00608004
0.00632385
0.00656404
0.00679983
0.00703043
0.00725507
0.00747297
0.00768337
0.00788551
0.0080787
0.00826224
0.00843553
0.00859797
0.00874905
0.00888831
0.00901536
0.00912987
0.0092316
0.00932036
0.00939609
0.00945879
0.00950857
0.00954565
0.00957033
0.00958303
0.00958422
0.00957449
0.0095545
0.00952499
0.00948678
0.00944076
0.00938788
0.00932911
0.0092655
0.00919809
0.00912791
0.00905601
0.00898337
0.0089109
0.0088394
0.00876991
0.00870329
0.00863527
0.00856138
0.000659005
0.000543723
0.000447007
0.000361537
0.000279471
0.000201482
0.000128441
6.06864e-05
-1.44116e-06
-5.75449e-05
-0.000107212
-0.000150046
-0.00018569
-0.000213823
-0.000234148
-0.000246399
-0.000250347
-0.000245796
-0.000232588
-0.000210595
-0.000179716
-0.000139867
-9.09879e-05
-3.30472e-05
3.39588e-05
0.000110025
0.00019513
0.000289234
0.000392284
0.000504221
0.000624959
0.000754378
0.000892345
0.00103872
0.00119336
0.00135607
0.00152665
0.00170487
0.00189049
0.00208324
0.00228282
0.00248889
0.00270111
0.00291913
0.00314253
0.00337084
0.00360359
0.00384027
0.00408035
0.00432328
0.00456845
0.00481523
0.00506297
0.00531096
0.0055585
0.00580484
0.00604923
0.0062909
0.00652907
0.00676295
0.00699176
0.00721472
0.00743105
0.00763999
0.0078408
0.00803275
0.00821517
0.00838743
0.00854896
0.00869921
0.00883774
0.00896414
0.00907809
0.00917933
0.00926768
0.00934304
0.00940543
0.00945494
0.00949179
0.00951627
0.00952877
0.00952976
0.0095198
0.00949953
0.00946966
0.00943097
0.00938432
0.0093306
0.00927073
0.00920567
0.0091364
0.00906387
0.00898901
0.00891272
0.00883576
0.00875882
0.00868286
0.0086087
0.00853096
0.00844425
0.000746894
0.000617278
0.000509767
0.000416063
0.000327154
0.000243614
0.000166211
9.51196e-05
3.05417e-05
-2.72596e-05
-7.8013e-05
-0.000121455
-0.000157331
-0.000185404
-0.000205463
-0.00021732
-0.00022081
-0.000215794
-0.000202158
-0.000179807
-0.000148668
-0.000108683
-5.98154e-05
-2.0503e-06
6.46072e-05
0.000140147
0.00022455
0.000317777
0.000419779
0.000530495
0.000649841
0.000777707
0.000913973
0.00105851
0.00121119
0.00137182
0.00154022
0.00171617
0.00189944
0.00208977
0.00228688
0.00249046
0.00270019
0.0029157
0.0031366
0.00336244
0.00359275
0.00382704
0.00406479
0.00430546
0.00454847
0.00479317
0.00503893
0.00528503
0.00553079
0.00577546
0.00601829
0.00625852
0.00649536
0.00672803
0.00695574
0.0071777
0.00739313
0.00760126
0.00780134
0.00799266
0.00817453
0.0083463
0.00850739
0.00865727
0.00879546
0.00892156
0.00903523
0.0091362
0.00922427
0.00929936
0.00936146
0.00941066
0.00944715
0.00947123
0.00948326
0.0094837
0.00947309
0.00945206
0.00942128
0.00938151
0.00933356
0.00927828
0.00921656
0.00914929
0.00907739
0.00900173
0.00892319
0.00884256
0.00876052
0.00867765
0.0085949
0.00851303
0.00842571
0.00832669
0.000827822
0.000684451
0.000566424
0.000464497
0.000368594
0.000279254
0.000197163
0.00012235
5.4896e-05
-5.05385e-06
-5.73524e-05
-0.000101849
-0.000138385
-0.000166807
-0.000186984
-0.000198798
-0.000202149
-0.000196953
-0.000183137
-0.000160641
-0.00012942
-8.9449e-05
-4.0712e-05
1.67908e-05
8.30462e-05
0.000158038
0.000241745
0.00033413
0.000435142
0.000544719
0.000662782
0.000789229
0.000923954
0.00106684
0.00121777
0.00137655
0.00154302
0.00171698
0.00189821
0.00208646
0.00228147
0.00248295
0.00269059
0.00290403
0.00312289
0.00334673
0.00357511
0.00380755
0.00404353
0.00428253
0.00452397
0.00476721
0.00501161
0.00525648
0.00550111
0.00574478
0.00598673
0.0062262
0.00646241
0.00669454
0.00692182
0.00714345
0.00735863
0.0075666
0.00776659
0.00795786
0.00813974
0.00831155
0.0084727
0.00862265
0.0087609
0.00888705
0.00900073
0.00910166
0.00918964
0.00926457
0.00932642
0.00937527
0.00941132
0.00943483
0.00944615
0.00944575
0.00943412
0.00941189
0.0093797
0.0093383
0.00928846
0.00923099
0.00916675
0.0090966
0.00902138
0.00894194
0.00885908
0.00877354
0.00868593
0.00859677
0.00850699
0.00841736
0.00832066
0.00820989
0.000900303
0.000743728
0.000615489
0.000505446
0.000402505
0.000307203
0.000220195
0.000141385
7.07284e-05
8.26474e-06
-4.5955e-05
-9.18752e-05
-0.000129429
-0.000158549
-0.000179177
-0.000191261
-0.00019476
-0.000189638
-0.000175866
-0.000153418
-0.000122284
-8.24661e-05
-3.39705e-05
2.31897e-05
8.8992e-05
0.000163415
0.000246433
0.000338005
0.000438079
0.000546595
0.000663479
0.000788639
0.000921979
0.0010634
0.00121277
0.00136994
0.00153473
0.00170697
0.00188646
0.00207296
0.00226623
0.00246599
0.00267193
0.00288373
0.003101
0.00332334
0.00355029
0.00378139
0.00401616
0.00425406
0.00449451
0.0047369
0.00498057
0.00522483
0.00546899
0.00571231
0.00595406
0.00619344
0.00642968
0.00666196
0.00688948
0.00711144
0.00732703
0.00753546
0.00773597
0.0079278
0.00811025
0.00828263
0.00844434
0.00859481
0.00873354
0.00886009
0.00897409
0.00907524
0.00916331
0.0092382
0.00929987
0.00934839
0.00938392
0.00940673
0.00941716
0.00941563
0.00940267
0.00937884
0.00934482
0.00930129
0.00924902
0.0091888
0.00912145
0.00904779
0.00896867
0.00888486
0.00879715
0.00870622
0.00861264
0.00851689
0.00841992
0.00832252
0.00821668
0.00809472
0.000963061
0.000793789
0.000655637
0.000537631
0.000427688
0.000326346
0.00023427
0.000151258
7.71497e-05
1.18903e-05
-4.45499e-05
-9.21989e-05
-0.000131076
-0.00016119
-0.000182554
-0.00019518
-0.000199078
-0.000194256
-0.000180727
-0.000158506
-0.000127613
-8.8078e-05
-3.99243e-05
1.68202e-05
8.21231e-05
0.000155958
0.000238292
0.000329079
0.000428264
0.000535792
0.000651597
0.000775597
0.000907703
0.00104782
0.00119584
0.00135161
0.00151497
0.00168576
0.0018638
0.00204888
0.00224075
0.00243916
0.00264382
0.00285439
0.00307053
0.00329182
0.00351784
0.00374813
0.00398222
0.00421957
0.00445962
0.00470175
0.00494529
0.00518958
0.00543391
0.00567754
0.00591973
0.00615969
0.00639663
0.00662973
0.00685816
0.0070811
0.00729775
0.00750729
0.00770894
0.00790192
0.00808551
0.00825901
0.00842179
0.00857325
0.00871287
0.0088402
0.00895484
0.00905646
0.00914485
0.00921985
0.00928143
0.00932964
0.00936462
0.00938663
0.00939599
0.00939312
0.00937852
0.00935277
0.0093165
0.00927041
0.00921523
0.00915174
0.00908075
0.00900306
0.00891949
0.00883082
0.00873777
0.00864103
0.00854115
0.00843856
0.00833428
0.00822913
0.0081144
0.00798176
0.00101496
0.00083347
0.000685697
0.000559885
0.000443023
0.00033564
0.000238402
0.000151036
7.32901e-05
5.02458e-06
-5.38704e-05
-0.000103498
-0.000143953
-0.000175315
-0.000197663
-0.000211064
-0.000215575
-0.00021125
-0.000198145
-0.000176311
-0.000145801
-0.000106664
-5.89426e-05
-2.68011e-06
6.20822e-05
0.00013531
0.000216963
0.000306989
0.000405333
0.000511947
0.000626772
0.000749733
0.000880749
0.00101974
0.00116659
0.00132117
0.00148334
0.00165295
0.00182983
0.0020138
0.00220463
0.00240205
0.0026058
0.00281557
0.003031
0.00325171
0.00347729
0.00370728
0.00394122
0.00417858
0.00441879
0.00466124
0.00490527
0.00515019
0.00539532
0.00563991
0.0058832
0.00612441
0.00636271
0.00659729
0.00682729
0.00705188
0.00727024
0.00748153
0.00768494
0.00787968
0.008065
0.00824016
0.00840452
0.00855745
0.00869841
0.0088269
0.00894252
0.00904491
0.00913384
0.00920914
0.00927074
0.00931869
0.00935311
0.00937424
0.0093824
0.009378
0.00936152
0.00933354
0.00929467
0.00924561
0.00918709
0.00911987
0.00904476
0.00896255
0.00887406
0.00878005
0.00868125
0.00857833
0.00847184
0.00836222
0.00825053
0.00813767
0.00801427
0.00787142
0.00105495
0.000861722
0.000704614
0.00057116
0.000447481
0.000334089
0.000231648
0.000139827
5.83087e-05
-1.31235e-05
-7.46565e-05
-0.000126462
-0.000168705
-0.00020153
-0.000225068
-0.00023944
-0.00024475
-0.000241097
-0.000228578
-0.000207276
-0.000177272
-0.000138636
-9.14287e-05
-3.57052e-05
2.84802e-05
0.000101082
0.000182054
0.000271343
0.000368896
0.000474667
0.000588605
0.000710643
0.000840709
0.000978723
0.00112459
0.00127819
0.00143941
0.00160809
0.00178411
0.00196728
0.00215738
0.00235418
0.00255741
0.00276677
0.00298193
0.00320252
0.00342812
0.00365832
0.00389262
0.00413053
0.00437147
0.00461481
0.00485992
0.0051061
0.00535265
0.00559883
0.00584388
0.00608699
0.00632733
0.00656405
0.00679629
0.0070232
0.00724392
0.0074576
0.00766341
0.00786053
0.00804816
0.00822556
0.00839203
0.00854693
0.00868967
0.00881974
0.0089367
0.00904018
0.00912991
0.0092057
0.00926747
0.00931524
0.00934913
0.00936934
0.0093762
0.0093701
0.00935153
0.00932104
0.00927926
0.00922687
0.00916461
0.00909324
0.00901357
0.0089264
0.00883255
0.00873278
0.00862783
0.0085184
0.00840503
0.00828818
0.00816899
0.00804843
0.00791654
0.00776388
0.00108211
0.000877578
0.00071143
0.000570502
0.000440105
0.000320754
0.000213108
0.000116781
3.13976e-05
-4.3324e-05
-0.000107639
-0.000161785
-0.000205988
-0.000240449
-0.00026535
-0.000280859
-0.00028713
-0.000284304
-0.000272511
-0.000251869
-0.00022248
-0.000184435
-0.000137813
-8.26818e-05
-1.91081e-05
5.28513e-05
0.000133145
0.00022172
0.000318527
0.000423525
0.000536667
0.000657893
0.000787138
0.000924332
0.00106939
0.00122222
0.0013827
0.00155071
0.00172614
0.00190881
0.00209851
0.00229503
0.0024981
0.00270745
0.00292276
0.00314367
0.00336978
0.00360066
0.00383585
0.00407483
0.00431704
0.00456185
0.00480862
0.00505666
0.00530526
0.00555368
0.00580113
0.0060468
0.00628984
0.00652938
0.00676453
0.00699443
0.00721819
0.00743493
0.00764378
0.0078439
0.00803446
0.00821467
0.00838381
0.00854119
0.0086862
0.00881829
0.00893698
0.00904188
0.0091327
0.00920921
0.00927133
0.00931903
0.00935242
0.00937171
0.0093772
0.00936928
0.00934843
0.0093152
0.00927022
0.00921417
0.00914781
0.00907191
0.00898727
0.00889473
0.0087951
0.00868918
0.00857773
0.00846145
0.00834093
0.00821666
0.00808986
0.00796161
0.00782137
0.0076592
0.00109556
0.000880149
0.000705251
0.000557021
0.000420011
0.00029476
0.000181931
8.10796e-05
-8.2283e-06
-8.63285e-05
-0.000153538
-0.000210155
-0.000256455
-0.000292694
-0.000319101
-0.000335891
-0.000343262
-0.000341397
-0.000330455
-0.000310581
-0.000281901
-0.000244528
-0.000198554
-0.000144064
-8.11363e-05
-9.83621e-06
6.9782e-05
0.000157667
0.000253773
0.000358062
0.000470492
0.00059101
0.000719558
0.000856079
0.0010005
0.00115274
0.0013127
0.00148029
0.00165539
0.00183784
0.00202746
0.00222402
0.0024273
0.00263703
0.00285289
0.00307455
0.00330162
0.00353367
0.00377024
0.00401082
0.00425484
0.00450168
0.0047507
0.0050012
0.00525247
0.00550376
0.00575427
0.00600316
0.00624957
0.0064926
0.00673136
0.00696493
0.0071924
0.00741287
0.00762543
0.0078292
0.00802331
0.00820695
0.00837933
0.00853974
0.00868753
0.0088221
0.00894294
0.00904964
0.00914186
0.00921936
0.00928202
0.0093298
0.00936279
0.00938118
0.00938527
0.00937542
0.00935214
0.00931596
0.00926753
0.00920754
0.00913674
0.00905594
0.00896596
0.00886766
0.00876186
0.00864941
0.00853109
0.00840765
0.00827971
0.00814781
0.00801328
0.00787728
0.00772876
0.0075573
0.00109457
0.000868624
0.000685232
0.000529877
0.000386374
0.000255292
0.000137314
3.19344e-05
-6.1333e-05
-0.000142875
-0.000213066
-0.000272253
-0.00032076
-0.000358889
-0.000386921
-0.000405116
-0.000413711
-0.00041292
-0.000402935
-0.000383924
-0.000356037
-0.000319405
-0.000274137
-0.000220335
-0.000158087
-8.7461e-05
-8.51362e-06
7.87038e-05
0.000174149
0.000277787
0.000389583
0.000509488
0.000637456
0.000773438
0.000917381
0.00106922
0.00122888
0.00139627
0.00157129
0.0017538
0.00194362
0.00214055
0.00234438
0.00255485
0.00277167
0.0029945
0.00322297
0.00345665
0.00369509
0.00393777
0.00418413
0.00443355
0.00468539
0.00493896
0.00519352
0.00544832
0.00570253
0.00595531
0.00620577
0.00645299
0.00669604
0.00693398
0.00716587
0.00739076
0.00760772
0.00781581
0.00801414
0.00820183
0.00837806
0.00854208
0.00869318
0.00883073
0.00895419
0.00906309
0.00915707
0.00923586
0.0092993
0.00934735
0.00938005
0.0093976
0.00940028
0.00938845
0.00936261
0.00932331
0.0092712
0.00920699
0.00913146
0.00904542
0.00894974
0.00884529
0.00873295
0.00861359
0.00848805
0.00835712
0.00822147
0.00808171
0.00793928
0.00779544
0.00763865
0.007458
0.00107845
0.000842264
0.000650592
0.000488282
0.000338412
0.000201579
7.84895e-05
-3.14079e-05
-0.000128655
-0.000213686
-0.00028692
-0.00034875
-0.000399548
-0.000439664
-0.000469425
-0.000489129
-0.00049905
-0.000499431
-0.000490494
-0.000472429
-0.000445408
-0.00040958
-0.000365076
-0.000312007
-0.000250468
-0.00018053
-0.000102251
-1.56824e-05
7.91373e-05
0.000182177
0.000293406
0.000412785
0.000540276
0.000675847
0.000819463
0.000971074
0.00113062
0.00129803
0.0014732
0.00165602
0.00184633
0.00204394
0.00224865
0.00246022
0.00267837
0.00290277
0.00313306
0.00336882
0.00360959
0.00385487
0.00410409
0.00435665
0.00461188
0.0048691
0.00512757
0.00538651
0.00564509
0.00590244
0.00615763
0.00640974
0.00665779
0.00690082
0.00713784
0.00736788
0.00758994
0.00780306
0.00800628
0.00819869
0.00837942
0.00854766
0.00870265
0.00884372
0.00897029
0.00908184
0.00917798
0.00925841
0.00932292
0.00937144
0.00940403
0.00942084
0.00942214
0.0094083
0.00937982
0.00933726
0.00928127
0.0092126
0.00913204
0.00904045
0.00893872
0.00882775
0.00870849
0.00858185
0.00844871
0.00830995
0.00816629
0.0080184
0.00786785
0.00771602
0.00755088
0.00736106
0.00104656
0.000800389
0.000600626
0.000431505
0.000275384
0.00013288
4.72455e-06
-0.000109677
-0.000210914
-0.000299462
-0.00037578
-0.000440309
-0.00049347
-0.000535656
-0.000567232
-0.000588535
-0.000599867
-0.000601505
-0.000593692
-0.000576645
-0.000550558
-0.000515598
-0.000471911
-0.000419616
-0.000358814
-0.00028958
-0.000211971
-0.000126037
-3.1814e-05
7.06701e-05
0.00018139
0.000300317
0.000427427
0.000562705
0.000706131
0.000857671
0.00101728
0.0011849
0.00136044
0.00154382
0.00173487
0.00193344
0.00213934
0.00235234
0.00257218
0.00279854
0.00303106
0.00326933
0.00351289
0.00376124
0.00401384
0.00427006
0.00452925
0.00479072
0.00505371
0.00531743
0.00558103
0.00584362
0.00610425
0.00636196
0.00661574
0.00686459
0.00710749
0.00734341
0.00757132
0.0077902
0.00799905
0.00819689
0.00838279
0.0085559
0.00871541
0.00886059
0.00899081
0.00910552
0.00920426
0.0092867
0.00935262
0.0094019
0.00943457
0.00945077
0.00945077
0.00943494
0.00940376
0.00935782
0.00929779
0.00922443
0.00913858
0.00904112
0.00893299
0.00881516
0.00868859
0.00855427
0.00841316
0.0082662
0.00811418
0.00795786
0.00779893
0.00763889
0.00746523
0.00726612
0.000998275
0.000742352
0.000534665
0.000358853
0.000196582
4.84816e-05
-8.46978e-05
-0.000203583
-0.000308809
-0.000400888
-0.000480321
-0.000547598
-0.000603181
-0.000647504
-0.000680969
-0.000703943
-0.000716761
-0.000719726
-0.000713107
-0.000697146
-0.000672058
-0.000638026
-0.000595206
-0.000543725
-0.000483689
-0.000415175
-0.000338242
-0.000252936
-0.000159291
-5.73307e-05
5.29268e-05
0.000171466
0.000298281
0.000433369
0.000576727
0.000728336
0.000888163
0.00105617
0.00123229
0.00141643
0.00160847
0.00180827
0.00201565
0.00223039
0.00245226
0.00268093
0.00291606
0.00315724
0.00340403
0.00365593
0.00391239
0.0041728
0.00443651
0.00470281
0.00497093
0.00524007
0.00550936
0.00577787
0.00604465
0.00630868
0.00656894
0.00682437
0.00707392
0.0073165
0.00755103
0.00777645
0.00799168
0.00819569
0.0083875
0.00856619
0.00873088
0.00888081
0.00901528
0.00913369
0.00923554
0.00932044
0.00938814
0.00943849
0.0094715
0.00948729
0.00948611
0.00946833
0.00943444
0.00938503
0.00932081
0.00924257
0.00915117
0.00904755
0.00893269
0.00880761
0.00867335
0.00853096
0.00838148
0.00822591
0.00806515
0.00790004
0.00773238
0.00756384
0.00738141
0.00717279
0.000933002
0.000667524
0.00045206
0.000269661
0.000101324
-5.23091e-05
-0.000190471
-0.000313816
-0.00042302
-0.000518639
-0.000601216
-0.000671281
-0.000729338
-0.000775855
-0.000811267
-0.000835975
-0.000850342
-0.000854698
-0.000849339
-0.00083453
-0.000810502
-0.000777454
-0.00073555
-0.000684924
-0.000625684
-0.000557912
-0.000481666
-0.000396992
-0.000303917
-0.000202461
-9.26297e-05
2.55764e-05
0.000152166
0.000287151
0.000430544
0.00058234
0.000742525
0.000911072
0.00108794
0.00127305
0.0014663
0.00166756
0.00187668
0.00209345
0.00231765
0.00254898
0.00278708
0.00303156
0.003282
0.00353789
0.00379869
0.00406381
0.00433258
0.00460428
0.00487813
0.00515332
0.00542896
0.00570409
0.00597774
0.00624884
0.00651634
0.00677913
0.00703612
0.00728617
0.00752814
0.0077609
0.00798332
0.00819431
0.00839281
0.00857782
0.00874844
0.00890381
0.00904319
0.00916591
0.00927142
0.00935929
0.00942921
0.00948101
0.00951467
0.00953028
0.00952808
0.00950844
0.00947186
0.00941894
0.00935042
0.00926711
0.00916993
0.00905986
0.00893793
0.00880523
0.00866288
0.00851199
0.00835369
0.00818908
0.00801915
0.00784483
0.00766806
0.00749065
0.00729909
0.0070806
0.000850162
0.000575296
0.000352178
0.000163284
-1.10514e-05
-0.000170163
-0.000313266
-0.000441048
-0.000554222
-0.000653391
-0.000739136
-0.000812025
-0.000872597
-0.000921355
-0.000958767
-0.000985263
-0.00100124
-0.00100704
-0.00100301
-0.000989414
-0.000966507
-0.000934497
-0.000893558
-0.00084383
-0.000785423
-0.000718421
-0.000642884
-0.000558854
-0.000466354
-0.000365393
-0.000255964
-0.000138053
-1.1635e-05
0.000123316
0.000266824
0.000418905
0.000579561
0.000748783
0.000926543
0.00111279
0.00130744
0.00151038
0.00172148
0.00194054
0.00216736
0.00240163
0.00264304
0.00289119
0.00314567
0.00340598
0.0036716
0.00394191
0.00421626
0.00449393
0.00477412
0.005056
0.00533865
0.0056211
0.00590234
0.00618127
0.00645679
0.00672776
0.00699301
0.00725137
0.00750163
0.00774259
0.00797306
0.00819186
0.00839788
0.00859005
0.00876738
0.00892896
0.00907397
0.00920167
0.00931147
0.00940287
0.00947552
0.00952922
0.00956389
0.00957961
0.00957661
0.00955525
0.00951604
0.0094596
0.00938668
0.00929815
0.00919495
0.00907814
0.00894881
0.00880811
0.00865724
0.00849741
0.00832983
0.00815571
0.00797612
0.00779209
0.00760574
0.007419
0.00721786
0.00698902
0.000749195
0.00046507
0.000234397
3.90789e-05
-0.000141195
-0.000305735
-0.000453743
-0.000585945
-0.000703091
-0.000805821
-0.000894755
-0.000970498
-0.00103362
-0.00108466
-0.00112411
-0.00115245
-0.00117009
-0.00117741
-0.00117476
-0.00116244
-0.00114071
-0.00110979
-0.00106987
-0.00102109
-0.000963556
-0.000897363
-0.000822567
-0.000739206
-0.000647296
-0.000546833
-0.000437798
-0.00032016
-0.00019388
-5.89186e-05
8.47648e-05
0.000237203
0.000398419
0.00056842
0.000747199
0.000934724
0.00113094
0.00133574
0.00154902
0.0017706
0.00200028