/*--------------------------------*- C++ -*----------------------------------*\
| =========                 |                                                 |
| \\      /  F ield         | OpenFOAM: The Open Source CFD Toolbox           |
|  \\    /   O peration     | Version:  2512                                  |
|   \\  /    A nd           | Website:  www.openfoam.com                      |
|    \\/     M anipulation  |                                                 |
\*---------------------------------------------------------------------------*/
FoamFile
{
    version     2.0;
    format      ascii;
    arch        "LSB;label=32;scalar=64";
    class       surfaceScalarField;
    location    "0.2";
    object      phi;
}
// * * * * * * * * * * * * * * * * * * * * * * * * * * * * * * * * * * * * * //

dimensions      [0 3 -1 0 0 0 0];

oriented        oriented;

internalField   nonuniform List<scalar> 
19800
(
6.08644e-11
-6.08612e-11
1.72015e-10
-1.11145e-10
2.60156e-10
-8.815e-11
2.92287e-10
-3.21255e-11
2.51432e-10
4.086e-11
1.31146e-10
1.20289e-10
-6.90911e-11
2.00241e-10
-3.4662e-10
2.77538e-10
-6.96961e-10
3.5034e-10
-1.11468e-09
4.17717e-10
-1.59393e-09
4.79252e-10
-2.12874e-09
5.34807e-10
-2.71314e-09
5.84403e-10
-3.34132e-09
6.28187e-10
-4.00772e-09
6.66407e-10
-4.70706e-09
6.99336e-10
-5.43434e-09
7.2727e-10
-6.18486e-09
7.50516e-10
-6.95423e-09
7.69366e-10
-7.73835e-09
7.84109e-10
-8.53338e-09
7.95026e-10
-9.33575e-09
8.02371e-10
-1.01421e-08
8.06377e-10
-1.09494e-08
8.07277e-10
-1.17547e-08
8.05275e-10
-1.25552e-08
8.00547e-10
-1.33485e-08
7.93259e-10
-1.4132e-08
7.83563e-10
-1.49036e-08
7.71581e-10
-1.5661e-08
7.57413e-10
-1.64022e-08
7.41158e-10
-1.71251e-08
7.22904e-10
-1.78278e-08
7.02718e-10
-1.85085e-08
6.80645e-10
-1.91652e-08
6.56733e-10
-1.97962e-08
6.31017e-10
-2.03997e-08
6.03524e-10
-2.0974e-08
5.74274e-10
-2.15173e-08
5.43291e-10
-2.20279e-08
5.10598e-10
-2.25041e-08
4.76214e-10
-2.29443e-08
4.40163e-10
-2.33468e-08
4.02471e-10
-2.37099e-08
3.63168e-10
-2.40322e-08
3.22291e-10
-2.43121e-08
2.79889e-10
-2.45481e-08
2.36022e-10
-2.47389e-08
1.90761e-10
-2.48831e-08
1.44182e-10
-2.49794e-08
9.63774e-11
-2.50269e-08
4.74592e-11
-2.50244e-08
-2.44768e-12
-2.49712e-08
-5.32041e-11
-2.48666e-08
-1.04655e-10
-2.471e-08
-1.56633e-10
-2.4501e-08
-2.08952e-10
-2.42396e-08
-2.61406e-10
-2.39258e-08
-3.13781e-10
-2.356e-08
-3.65841e-10
-2.31426e-08
-4.17333e-10
-2.26746e-08
-4.67993e-10
-2.21571e-08
-5.17552e-10
-2.15914e-08
-5.65729e-10
-2.09791e-08
-6.12238e-10
-2.03223e-08
-6.56779e-10
-1.96233e-08
-6.99046e-10
-1.88846e-08
-7.38728e-10
-1.81091e-08
-7.75527e-10
-1.72999e-08
-8.09145e-10
-1.64606e-08
-8.39291e-10
-1.55949e-08
-8.65684e-10
-1.47069e-08
-8.88054e-10
-1.38007e-08
-9.06143e-10
-1.2881e-08
-9.19711e-10
-1.19525e-08
-9.28536e-10
-1.10201e-08
-9.32419e-10
-1.00889e-08
-9.31184e-10
-9.1642e-09
-9.24684e-10
-8.2514e-09
-9.12799e-10
-7.35597e-09
-8.95434e-10
-6.48344e-09
-8.72523e-10
-5.63941e-09
-8.44034e-10
-4.82944e-09
-8.09973e-10
-4.05907e-09
-7.70375e-10
-3.33376e-09
-7.25311e-10
-2.65887e-09
-6.74894e-10
-2.03958e-09
-6.19289e-10
-1.48086e-09
-5.58716e-10
-9.87394e-10
-4.93465e-10
-5.63466e-10
-4.23925e-10
-2.12836e-10
-3.50627e-10
6.14755e-11
-2.74313e-10
2.57515e-10
-1.96044e-10
3.74891e-10
-1.17379e-10
4.1565e-10
-4.07574e-11
3.85698e-10
2.99521e-11
2.97227e-10
8.84654e-11
1.72894e-10
1.24329e-10
5.33137e-11
1.19582e-10
5.33146e-11
1.05676e-10
-1.66531e-10
2.47405e-10
-2.52867e-10
3.16748e-10
-1.575e-10
2.46401e-10
3.82113e-11
-1.12999e-12
2.88382e-10
-4.44334e-10
5.63487e-10
-1.08908e-09
8.44978e-10
-1.93252e-09
1.12097e-09
-2.96643e-09
1.38426e-09
-4.17927e-09
1.63056e-09
-5.55754e-09
1.85753e-09
-7.08676e-09
2.06402e-09
-8.75205e-09
2.24968e-09
-1.05385e-08
2.41467e-09
-1.24317e-08
2.55952e-09
-1.44173e-08
2.68501e-09
-1.64821e-08
2.79202e-09
-1.8613e-08
2.8815e-09
-2.07981e-08
2.95444e-09
-2.30258e-08
3.01183e-09
-2.52854e-08
3.05462e-09
-2.75668e-08
3.08371e-09
-2.98604e-08
3.09999e-09
-3.21574e-08
3.10425e-09
-3.44494e-08
3.09722e-09
-3.67284e-08
3.0796e-09
-3.89872e-08
3.052e-09
-4.12186e-08
3.01495e-09
-4.34159e-08
2.96893e-09
-4.55729e-08
2.91436e-09
-4.76833e-08
2.85161e-09
-4.97414e-08
2.78101e-09
-5.17415e-08
2.70281e-09
-5.36781e-08
2.61721e-09
-5.55458e-08
2.52443e-09
-5.73394e-08
2.42461e-09
-5.90538e-08
2.31789e-09
-6.06839e-08
2.20438e-09
-6.22248e-08
2.08419e-09
-6.36716e-08
1.95742e-09
-6.50196e-08
1.82416e-09
-6.62639e-08
1.68453e-09
-6.74001e-08
1.53864e-09
-6.84236e-08
1.38665e-09
-6.933e-08
1.22872e-09
-7.01152e-08
1.06505e-09
-7.0775e-08
8.95891e-10
-7.13058e-08
7.21505e-10
-7.17038e-08
5.42223e-10
-7.19659e-08
3.58417e-10
-7.20889e-08
1.70518e-10
-7.20704e-08
-2.09904e-11
-7.1908e-08
-2.15574e-10
-7.16e-08
-4.12639e-10
-7.11451e-08
-6.11528e-10
-7.05425e-08
-8.11527e-10
-6.97921e-08
-1.01186e-09
-6.88942e-08
-1.2117e-09
-6.78499e-08
-1.41015e-09
-6.66609e-08
-1.60627e-09
-6.53298e-08
-1.79909e-09
-6.38598e-08
-1.98756e-09
-6.22549e-08
-2.17065e-09
-6.05199e-08
-2.34725e-09
-5.86604e-08
-2.51625e-09
-5.66829e-08
-2.67651e-09
-5.45948e-08
-2.82691e-09
-5.2404e-08
-2.9663e-09
-5.01196e-08
-3.09359e-09
-4.77512e-08
-3.20769e-09
-4.53093e-08
-3.30754e-09
-4.28052e-08
-3.39215e-09
-4.02508e-08
-3.46055e-09
-3.76586e-08
-3.51186e-09
-3.50419e-08
-3.54527e-09
-3.24143e-08
-3.56003e-09
-2.97899e-08
-3.55552e-09
-2.71834e-08
-3.53119e-09
-2.46096e-08
-3.48662e-09
-2.20836e-08
-3.42146e-09
-1.96206e-08
-3.33553e-09
-1.72359e-08
-3.22875e-09
-1.49447e-08
-3.10119e-09
-1.2762e-08
-2.95304e-09
-1.07026e-08
-2.78468e-09
-8.78086e-09
-2.59666e-09
-7.01041e-09
-2.38974e-09
-5.40418e-09
-2.16494e-09
-3.97404e-09
-1.9236e-09
-2.73045e-09
-1.6675e-09
-1.68208e-09
-1.399e-09
-8.35107e-10
-1.1213e-09
-1.92367e-10
-8.38792e-10
2.47967e-10
-5.57713e-10
4.94255e-10
-2.87044e-10
5.64152e-10
-3.99507e-11
4.88501e-10
1.64113e-10
3.16257e-10
2.96578e-10
1.19318e-10
3.16523e-10
1.72631e-10
9.07232e-11
-2.57263e-10
1.59731e-10
-3.21885e-10
9.03419e-11
-8.81009e-11
-1.94436e-10
3.22991e-10
-7.41918e-10
8.35866e-10
-1.57766e-09
1.39924e-09
-2.71098e-09
1.97829e-09
-4.13991e-09
2.5499e-09
-5.85462e-09
3.09896e-09
-7.84002e-09
3.61596e-09
-1.00776e-08
4.09516e-09
-1.2547e-08
4.53339e-09
-1.52266e-08
4.92928e-09
-1.80946e-08
5.28263e-09
-2.11292e-08
5.5941e-09
-2.43091e-08
5.86493e-09
-2.76137e-08
6.09667e-09
-3.10233e-08
6.2911e-09
-3.4519e-08
6.45012e-09
-3.80829e-08
6.57567e-09
-4.16979e-08
6.66966e-09
-4.53481e-08
6.73394e-09
-4.90184e-08
6.77028e-09
-5.26945e-08
6.78036e-09
-5.6363e-08
6.76571e-09
-6.00112e-08
6.72778e-09
-6.3627e-08
6.66785e-09
-6.71992e-08
6.58708e-09
-7.07167e-08
6.48649e-09
-7.41694e-08
6.36702e-09
-7.75472e-08
6.22945e-09
-8.08407e-08
6.07449e-09
-8.40407e-08
5.90274e-09
-8.71381e-08
5.71468e-09
-9.01244e-08
5.51075e-09
-9.29911e-08
5.29131e-09
-9.573e-08
5.0567e-09
-9.83328e-08
4.8072e-09
-1.00792e-07
4.54307e-09
-1.03099e-07
4.26457e-09
-1.05247e-07
3.97194e-09
-1.07228e-07
3.66547e-09
-1.09034e-07
3.34544e-09
-1.1066e-07
3.01221e-09
-1.12097e-07
2.66619e-09
-1.1334e-07
2.30783e-09
-1.14382e-07
1.93769e-09
-1.15217e-07
1.55639e-09
-1.15839e-07
1.16467e-09
-1.16244e-07
7.63354e-10
-1.16427e-07
3.53386e-10
-1.16384e-07
-6.41689e-11
-1.16111e-07
-4.88128e-10
-1.15607e-07
-9.17189e-10
-1.14868e-07
-1.34992e-09
-1.13895e-07
-1.78477e-09
-1.12687e-07
-2.22006e-09
-1.11245e-07
-2.654e-09
-1.0957e-07
-3.08465e-09
-1.07666e-07
-3.51001e-09
-1.05538e-07
-3.92795e-09
-1.03189e-07
-4.33627e-09
-1.00627e-07
-4.73269e-09
-9.78592e-08
-5.11487e-09
-9.4895e-08
-5.48043e-09
-9.17445e-08
-5.82696e-09
-8.84194e-08
-6.15203e-09
-8.49325e-08
-6.45324e-09
-8.12979e-08
-6.72822e-09
-7.75309e-08
-6.97465e-09
-7.36481e-08
-7.1903e-09
-6.96673e-08
-7.37303e-09
-6.5607e-08
-7.5208e-09
-6.14871e-08
-7.63175e-09
-5.73282e-08
-7.70414e-09
-5.31518e-08
-7.73644e-09
-4.898e-08
-7.7273e-09
-4.48356e-08
-7.67561e-09
-4.07418e-08
-7.58047e-09
-3.6722e-08
-7.44125e-09
-3.28e-08
-7.25757e-09
-2.89994e-08
-7.02935e-09
-2.53437e-08
-6.75683e-09
-2.18562e-08
-6.44057e-09
-1.85594e-08
-6.08151e-09
-1.5475e-08
-5.68102e-09
-1.26238e-08
-5.24096e-09
-1.00249e-08
-4.76378e-09
-7.69582e-09
-4.2527e-09
-5.65144e-09
-3.71189e-09
-3.90364e-09
-3.14681e-09
-2.46025e-09
-2.56469e-09
-1.32382e-09
-1.97523e-09
-4.89936e-10
-1.39161e-09
5.50217e-11
-8.3201e-10
3.3682e-10
-3.21756e-10
3.97083e-10
1.03851e-10
2.97484e-10
3.96176e-10
1.2418e-10
4.89825e-10
2.9681e-10
3.53955e-11
-2.92651e-10
-3.24849e-11
-2.54017e-10
-3.16132e-10
1.95547e-10
-8.91148e-10
8.98005e-10
-1.80588e-09
1.7506e-09
-3.08735e-09
2.68071e-09
-4.74598e-09
3.63694e-09
-6.7798e-09
4.58372e-09
-9.17773e-09
5.49689e-09
-1.19222e-08
6.36043e-09
-1.49912e-08
7.16417e-09
-1.83599e-08
7.90211e-09
-2.20019e-08
8.5712e-09
-2.58897e-08
9.17044e-09
-2.99959e-08
9.70035e-09
-3.42934e-08
1.01624e-08
-3.87557e-08
1.05589e-08
-4.3357e-08
1.08924e-08
-4.80728e-08
1.11659e-08
-5.28794e-08
1.13823e-08
-5.77544e-08
1.15447e-08
-6.26765e-08
1.16561e-08
-6.76256e-08
1.17194e-08
-7.25826e-08
1.17373e-08
-7.75293e-08
1.17124e-08
-8.24486e-08
1.16471e-08
-8.73242e-08
1.15435e-08
-9.21407e-08
1.14036e-08
-9.68833e-08
1.12291e-08
-1.01538e-07
1.10217e-08
-1.06091e-07
1.07826e-08
-1.1053e-07
1.05132e-08
-1.14841e-07
1.02144e-08
-1.19014e-07
9.88719e-09
-1.23036e-07
9.53229e-09
-1.26895e-07
9.15041e-09
-1.3058e-07
8.74212e-09
-1.34081e-07
8.30799e-09
-1.37386e-07
7.84849e-09
-1.40486e-07
7.36413e-09
-1.43369e-07
6.8554e-09
-1.46027e-07
6.32281e-09
-1.48448e-07
5.76694e-09
-1.50624e-07
5.18843e-09
-1.52546e-07
4.58803e-09
-1.54205e-07
3.96657e-09
-1.55592e-07
3.32505e-09
-1.56701e-07
2.66459e-09
-1.57522e-07
1.98648e-09
-1.58051e-07
1.29219e-09
-1.58281e-07
5.83366e-10
-1.58207e-07
-1.38148e-10
-1.57825e-07
-8.70296e-10
-1.57131e-07
-1.61081e-09
-1.56124e-07
-2.35724e-09
-1.54802e-07
-3.10689e-09
-1.53165e-07
-3.85688e-09
-1.51215e-07
-4.60412e-09
-1.48954e-07
-5.34535e-09
-1.46387e-07
-6.07709e-09
-1.43519e-07
-6.79574e-09
-1.40358e-07
-7.49753e-09
-1.36912e-07
-8.17859e-09
-1.33192e-07
-8.83493e-09
-1.2921e-07
-9.46249e-09
-1.2498e-07
-1.00572e-08
-1.20517e-07
-1.06149e-08
-1.15839e-07
-1.11316e-08
-1.10964e-07
-1.16032e-08
-1.05912e-07
-1.20259e-08
-1.00707e-07
-1.23957e-08
-9.53708e-08
-1.27092e-08
-8.99287e-08
-1.29629e-08
-8.44068e-08
-1.31536e-08
-7.88324e-08
-1.32785e-08
-7.32339e-08
-1.33349e-08
-6.76405e-08
-1.33207e-08
-6.20821e-08
-1.3234e-08
-5.65894e-08
-1.30732e-08
-5.11931e-08
-1.28375e-08
-4.59243e-08
-1.25264e-08
-4.08139e-08
-1.21397e-08
-3.58927e-08
-1.1678e-08
-3.11908e-08
-1.11425e-08
-2.67372e-08
-1.05351e-08
-2.25601e-08
-9.85815e-09
-1.86858e-08
-9.11528e-09
-1.51386e-08
-8.31099e-09
-1.19401e-08
-7.45113e-09
-9.10884e-09
-6.54318e-09
-6.65882e-09
-5.59683e-09
-4.59894e-09
-4.62457e-09
-2.93138e-09
-3.64279e-09
-1.64989e-09
-2.6731e-09
-7.37627e-10
-1.74428e-09
-1.64485e-10
-8.94899e-10
1.16071e-10
-1.76704e-10
1.70531e-10
3.41713e-10
8.96611e-11
5.70694e-10
3.86472e-10
-3.74043e-11
-2.55239e-10
-2.8286e-10
-8.57064e-12
-8.3085e-10
7.43539e-10
-1.74792e-09
1.81508e-09
-3.07755e-09
3.08022e-09
-4.84414e-09
4.4473e-09
-7.05655e-09
5.84934e-09
-9.71138e-09
7.23855e-09
-1.27959e-08
8.58138e-09
-1.62902e-08
9.85479e-09
-2.01697e-08
1.10436e-08
-2.44059e-08
1.21383e-08
-2.89685e-08
1.31338e-08
-3.38258e-08
1.40277e-08
-3.89457e-08
1.48203e-08
-4.42964e-08
1.55131e-08
-4.98462e-08
1.61088e-08
-5.55647e-08
1.66109e-08
-6.14221e-08
1.70233e-08
-6.73901e-08
1.73502e-08
-7.34414e-08
1.7596e-08
-7.955e-08
1.77647e-08
-8.56912e-08
1.78606e-08
-9.18415e-08
1.78876e-08
-9.79786e-08
1.78495e-08
-1.04081e-07
1.77497e-08
-1.10129e-07
1.75915e-08
-1.16104e-07
1.73777e-08
-1.21985e-07
1.7111e-08
-1.27758e-07
1.67938e-08
-1.33403e-07
1.64281e-08
-1.38906e-07
1.60157e-08
-1.4425e-07
1.55584e-08
-1.4942e-07
1.50574e-08
-1.54401e-07
1.4514e-08
-1.5918e-07
1.39293e-08
-1.63742e-07
1.33042e-08
-1.68074e-07
1.26397e-08
-1.72162e-07
1.19365e-08
-1.75994e-07
1.11955e-08
-1.79556e-07
1.04174e-08
-1.82836e-07
9.6032e-09
-1.85823e-07
8.75373e-09
-1.88504e-07
7.87007e-09
-1.9087e-07
6.9534e-09
-1.92908e-07
6.00506e-09
-1.9461e-07
5.02661e-09
-1.95965e-07
4.01979e-09
-1.96965e-07
2.98663e-09
-1.97602e-07
1.92937e-09
-1.9787e-07
8.50563e-10
-1.97761e-07
-2.46969e-10
-1.97271e-07
-1.36009e-09
-1.96396e-07
-2.48537e-09
-1.95135e-07
-3.61904e-09
-1.93484e-07
-4.75705e-09
-1.91446e-07
-5.89503e-09
-1.89022e-07
-7.02832e-09
-1.86215e-07
-8.15197e-09
-1.83032e-07
-9.2608e-09
-1.79478e-07
-1.03493e-08
-1.75564e-07
-1.14119e-08
-1.71299e-07
-1.24428e-08
-1.66698e-07
-1.34359e-08
-1.61776e-07
-1.43852e-08
-1.56548e-07
-1.52846e-08
-1.51035e-07
-1.6128e-08
-1.45258e-07
-1.69091e-08
-1.39239e-07
-1.76221e-08
-1.33004e-07
-1.82611e-08
-1.26579e-07
-1.88205e-08
-1.19993e-07
-1.92948e-08
-1.13277e-07
-1.96789e-08
-1.06463e-07
-1.99683e-08
-9.95826e-08
-2.01586e-08
-9.26716e-08
-2.02459e-08
-8.57652e-08
-2.02271e-08
-7.88998e-08
-2.00994e-08
-7.21122e-08
-1.98608e-08
-6.54398e-08
-1.95099e-08
-5.89202e-08
-1.9046e-08
-5.25905e-08
-1.84694e-08
-4.64876e-08
-1.77809e-08
-4.06476e-08
-1.69825e-08
-3.51053e-08
-1.60774e-08
-2.98939e-08
-1.50696e-08
-2.50445e-08
-1.39647e-08
-2.05856e-08
-1.27699e-08
-1.65423e-08
-1.14944e-08
-1.29357e-08
-1.01498e-08
-9.78187e-09
-8.7507e-09
-7.09051e-09
-7.31593e-09
-4.8639e-09
-5.86939e-09
-3.09511e-09
-4.4419e-09
-1.76606e-09
-3.07333e-09
-8.45385e-10
-1.81557e-09
-2.85911e-10
-7.36177e-10
-2.19039e-11
7.77066e-11
3.43191e-11
5.14472e-10
4.2079e-10
-1.17599e-10
-1.37638e-10
-5.6195e-10
4.35777e-10
-1.40414e-09
1.58574e-09
-2.69609e-09
3.10703e-09
-4.47215e-09
4.85628e-09
-6.75082e-09
6.72596e-09
-9.53703e-09
8.63554e-09
-1.28244e-08
1.0526e-08
-1.65977e-08
1.23547e-08
-2.08347e-08
1.40917e-08
-2.55077e-08
1.57166e-08
-3.05857e-08
1.72163e-08
-3.60348e-08
1.85829e-08
-4.18199e-08
1.98129e-08
-4.79051e-08
2.09055e-08
-5.42545e-08
2.18624e-08
-6.08323e-08
2.26867e-08
-6.76039e-08
2.33825e-08
-7.45353e-08
2.39547e-08
-8.15938e-08
2.44088e-08
-8.87481e-08
2.47502e-08
-9.5968e-08
2.49846e-08
-1.03225e-07
2.51173e-08
-1.10491e-07
2.51538e-08
-1.1774e-07
2.5099e-08
-1.24948e-07
2.49576e-08
-1.32091e-07
2.47339e-08
-1.39145e-07
2.4432e-08
-1.46089e-07
2.40555e-08
-1.52903e-07
2.36076e-08
-1.59566e-07
2.30913e-08
-1.6606e-07
2.25091e-08
-1.72365e-07
2.18632e-08
-1.78463e-07
2.11558e-08
-1.84338e-07
2.03885e-08
-1.89971e-07
1.9563e-08
-1.95348e-07
1.86806e-08
-2.00451e-07
1.77426e-08
-2.05264e-07
1.67503e-08
-2.09774e-07
1.57049e-08
-2.13964e-07
1.46076e-08
-2.1782e-07
1.34597e-08
-2.21329e-07
1.22625e-08
-2.24477e-07
1.10177e-08
-2.2725e-07
9.72695e-09
-2.29638e-07
8.3922e-09
-2.31627e-07
7.01569e-09
-2.33207e-07
5.59996e-09
-2.34368e-07
4.14785e-09
-2.35101e-07
2.66259e-09
-2.35399e-07
1.14777e-09
-2.35253e-07
-3.92607e-10
-2.34659e-07
-1.95414e-09
-2.33612e-07
-3.532e-09
-2.3211e-07
-5.12093e-09
-2.30152e-07
-6.71525e-09
-2.27738e-07
-8.30886e-09
-2.24871e-07
-9.89527e-09
-2.21556e-07
-1.14676e-08
-2.17798e-07
-1.30186e-08
-2.13607e-07
-1.45407e-08
-2.08992e-07
-1.60261e-08
-2.03968e-07
-1.74667e-08
-1.9855e-07
-1.88542e-08
-1.92755e-07
-2.01803e-08
-1.86603e-07
-2.14363e-08
-1.80117e-07
-2.2614e-08
-1.73322e-07
-2.37048e-08
-1.66243e-07
-2.47005e-08
-1.58912e-07
-2.55929e-08
-1.51358e-07
-2.63744e-08
-1.43615e-07
-2.70376e-08
-1.35718e-07
-2.75753e-08
-1.27705e-07
-2.79813e-08
-1.19614e-07
-2.82496e-08
-1.11485e-07
-2.83751e-08
-1.03359e-07
-2.83533e-08
-9.52776e-08
-2.81807e-08
-8.7284e-08
-2.78544e-08
-7.94211e-08
-2.73728e-08
-7.17319e-08
-2.67352e-08
-6.42594e-08
-2.59419e-08
-5.70457e-08
-2.49946e-08
-5.0132e-08
-2.38963e-08
-4.35579e-08
-2.26515e-08
-3.73611e-08
-2.12664e-08
-3.15768e-08
-1.9749e-08
-2.6237e-08
-1.81097e-08
-2.13698e-08
-1.63616e-08
-1.69986e-08
-1.45209e-08
-1.31413e-08
-1.2608e-08
-9.80877e-09
-1.06484e-08
-7.00406e-09
-8.67411e-09
-4.7207e-09
-6.72526e-09
-2.94122e-09
-4.85281e-09
-1.63546e-09
-3.12132e-09
-7.58818e-10
-1.61282e-09
-2.50406e-10
-4.30704e-10
-3.10983e-11
2.95164e-10
3.89689e-10
-1.9949e-10
6.18547e-11
-8.5207e-10
1.08835e-09
-2.00345e-09
2.73711e-09
-3.68843e-09
4.79201e-09
-5.92937e-09
7.09721e-09
-8.73638e-09
9.53297e-09
-1.21085e-08
1.20076e-08
-1.60349e-08
1.44524e-08
-2.04969e-08
1.68167e-08
-2.54692e-08
1.9064e-08
-3.09213e-08
2.11688e-08
-3.68192e-08
2.31142e-08
-4.31263e-08
2.489e-08
-4.98041e-08
2.64907e-08
-5.68136e-08
2.7915e-08
-6.41154e-08
2.91642e-08
-7.16702e-08
3.02415e-08
-7.94397e-08
3.1152e-08
-8.73864e-08
3.19014e-08
-9.54739e-08
3.24963e-08
-1.03667e-07
3.29434e-08
-1.11932e-07
3.32497e-08
-1.20237e-07
3.34221e-08
-1.28551e-07
3.34673e-08
-1.36843e-07
3.33916e-08
-1.45087e-07
3.32011e-08
-1.53254e-07
3.29012e-08
-1.61319e-07
3.24973e-08
-1.69258e-07
3.1994e-08
-1.77046e-07
3.13955e-08
-1.8466e-07
3.07057e-08
-1.92079e-07
2.9928e-08
-1.99281e-07
2.90654e-08
-2.06246e-07
2.81206e-08
-2.12954e-07
2.7096e-08
-2.19384e-07
2.59938e-08
-2.2552e-07
2.48158e-08
-2.31341e-07
2.35639e-08
-2.3683e-07
2.22398e-08
-2.41971e-07
2.08452e-08
-2.46745e-07
1.93818e-08
-2.51137e-07
1.78514e-08
-2.5513e-07
1.62559e-08
-2.5871e-07
1.45975e-08
-2.61861e-07
1.28786e-08
-2.64571e-07
1.11017e-08
-2.66825e-07
9.27012e-09
-2.68612e-07
7.38708e-09
-2.69921e-07
5.45648e-09
-2.70741e-07
3.48263e-09
-2.71064e-07
1.47036e-09
-2.70881e-07
-5.75029e-10
-2.70188e-07
-2.64765e-09
-2.68979e-07
-4.74111e-09
-2.67251e-07
-6.84843e-09
-2.65004e-07
-8.96212e-09
-2.62239e-07
-1.10741e-08
-2.58958e-07
-1.31758e-08
-2.55168e-07
-1.52582e-08
-2.50875e-07
-1.73117e-08
-2.46089e-07
-1.93264e-08
-2.40823e-07
-2.1292e-08
-2.35092e-07
-2.31979e-08
-2.28913e-07
-2.50332e-08
-2.22306e-07
-2.6787e-08
-2.15294e-07
-2.8448e-08
-2.07903e-07
-3.00053e-08
-2.0016e-07
-3.14478e-08
-1.92096e-07
-3.27647e-08
-1.83743e-07
-3.39454e-08
-1.75138e-07
-3.49798e-08
-1.66317e-07
-3.58582e-08
-1.57321e-07
-3.65717e-08
-1.48191e-07
-3.71117e-08
-1.3897e-07
-3.74707e-08
-1.29703e-07
-3.76421e-08
-1.20436e-07
-3.76201e-08
-1.11216e-07
-3.74002e-08
-1.02092e-07
-3.69789e-08
-9.31104e-08
-3.63542e-08
-8.43203e-08
-3.55253e-08
-7.57692e-08
-3.4493e-08
-6.75039e-08
-3.32598e-08
-5.95702e-08
-3.183e-08
-5.2012e-08
-3.02097e-08
-4.48708e-08
-2.84075e-08
-3.81854e-08
-2.64344e-08
-3.19909e-08
-2.43042e-08
-2.63182e-08
-2.20343e-08
-2.11929e-08
-1.96462e-08
-1.66348e-08
-1.71661e-08
-1.26565e-08
-1.46268e-08
-9.26245e-09
-1.20682e-08
-6.44779e-09
-9.53992e-09
-4.19719e-09
-7.1034e-09
-2.48367e-09
-4.83484e-09
-1.26753e-09
-2.82896e-09
-4.95532e-10
-1.20271e-09
-1.003e-10
-1.00072e-10
2.89385e-10
-2.80234e-10
3.42093e-10
-1.14253e-09
1.95064e-09
-2.60809e-09
4.20267e-09
-4.69351e-09
6.87742e-09
-7.40758e-09
9.81128e-09
-1.07504e-08
1.28758e-08
-1.47135e-08
1.59707e-08
-1.92805e-08
1.90194e-08
-2.44282e-08
2.19644e-08
-3.01276e-08
2.47634e-08
-3.63452e-08
2.73863e-08
-4.30438e-08
2.98128e-08
-5.0184e-08
3.20301e-08
-5.77244e-08
3.40311e-08
-6.56229e-08
3.58136e-08
-7.38372e-08
3.73785e-08
-8.23251e-08
3.87294e-08
-9.10449e-08
3.98718e-08
-9.9956e-08
4.08125e-08
-1.09019e-07
4.1559e-08
-1.18195e-07
4.21195e-08
-1.27447e-07
4.25023e-08
-1.36741e-07
4.27157e-08
-1.46041e-07
4.27678e-08
-1.55316e-07
4.26663e-08
-1.64534e-07
4.24187e-08
-1.73665e-07
4.20319e-08
-1.82679e-07
4.15122e-08
-1.91551e-07
4.08656e-08
-2.00253e-07
4.00974e-08
-2.08759e-07
3.92123e-08
-2.17046e-07
3.82147e-08
-2.25089e-07
3.71085e-08
-2.32866e-07
3.58971e-08
-2.40353e-07
3.45836e-08
-2.4753e-07
3.31708e-08
-2.54376e-07
3.16612e-08
-2.60869e-07
3.00573e-08
-2.6699e-07
2.83612e-08
-2.72721e-07
2.65753e-08
-2.78041e-07
2.47018e-08
-2.82932e-07
2.27431e-08
-2.87378e-07
2.07018e-08
-2.91361e-07
1.85807e-08
-2.94866e-07
1.6383e-08
-2.97876e-07
1.4112e-08
-3.00378e-07
1.17719e-08
-3.02358e-07
9.36699e-09
-3.03803e-07
6.90226e-09
-3.04704e-07
4.38325e-09
-3.0505e-07
1.81614e-09
-3.04833e-07
-7.9226e-10
-3.04046e-07
-3.43446e-09
-3.02685e-07
-6.10229e-09
-3.00746e-07
-8.78691e-09
-2.9823e-07
-1.14787e-08
-2.95136e-07
-1.41676e-08
-2.91469e-07
-1.68426e-08
-2.87235e-07
-1.94923e-08
-2.82442e-07
-2.21046e-08
-2.77102e-07
-2.4667e-08
-2.71227e-07
-2.71665e-08
-2.64835e-07
-2.95896e-08
-2.57946e-07
-3.19227e-08
-2.50581e-07
-3.41519e-08
-2.42766e-07
-3.62632e-08
-2.34528e-07
-3.82427e-08
-2.259e-07
-4.00764e-08
-2.16914e-07
-4.17509e-08
-2.07606e-07
-4.32528e-08
-1.98017e-07
-4.45694e-08
-1.88186e-07
-4.56887e-08
-1.78159e-07
-4.65992e-08
-1.6798e-07
-4.72905e-08
-1.57697e-07
-4.77532e-08
-1.4736e-07
-4.79789e-08
-1.3702e-07
-4.79607e-08
-1.26727e-07
-4.76929e-08
-1.16535e-07
-4.71713e-08
-1.06495e-07
-4.63936e-08
-9.66613e-08
-4.53592e-08
-8.7085e-08
-4.40693e-08
-7.78175e-08
-4.25273e-08
-6.89085e-08
-4.0739e-08
-6.04057e-08
-3.87125e-08
-5.23543e-08
-3.6459e-08
-4.47962e-08
-3.39925e-08
-3.77696e-08
-3.13309e-08
-3.13079e-08
-2.84961e-08
-2.54391e-08
-2.55149e-08
-2.01853e-08
-2.242e-08
-1.55609e-08
-1.92511e-08
-1.15729e-08
-1.60563e-08
-8.21877e-09
-1.2894e-08
-5.48669e-09
-9.83547e-09
-3.35426e-09
-6.96727e-09
-1.78828e-09
-4.39494e-09
-7.44793e-10
-2.2462e-09
-1.69597e-10
-6.75274e-10
1.19786e-10
-3.58391e-10
7.00483e-10
-1.4273e-09
3.01956e-09
-3.20531e-09
5.98068e-09
-5.69091e-09
9.36302e-09
-8.87874e-09
1.29991e-08
-1.27579e-08
1.67549e-08
-1.73113e-08
2.05241e-08
-2.2516e-08
2.42242e-08
-2.83435e-08
2.77919e-08
-3.47606e-08
3.11804e-08
-4.173e-08
3.43557e-08
-4.92114e-08
3.72943e-08
-5.71624e-08
3.9981e-08
-6.55388e-08
4.24075e-08
-7.42957e-08
4.45705e-08
-8.3388e-08
4.64708e-08
-9.27707e-08
4.81121e-08
-1.02399e-07
4.95005e-08
-1.12231e-07
5.06436e-08
-1.22222e-07
5.15502e-08
-1.32332e-07
5.22297e-08
-1.42521e-07
5.26917e-08
-1.52752e-07
5.2946e-08
-1.62986e-07
5.30021e-08
-1.73189e-07
5.28693e-08
-1.83326e-07
5.25563e-08
-1.93366e-07
5.20716e-08
-2.03277e-07
5.14227e-08
-2.13028e-07
5.06167e-08
-2.2259e-07
4.96601e-08
-2.31937e-07
4.85589e-08
-2.4104e-07
4.73182e-08
-2.49875e-07
4.59428e-08
-2.58415e-07
4.44371e-08
-2.66636e-07
4.28048e-08
-2.74515e-07
4.10495e-08
-2.82028e-07
3.91744e-08
-2.89153e-07
3.71825e-08
-2.95868e-07
3.50767e-08
-3.02153e-07
3.28599e-08
-3.07986e-07
3.0535e-08
-3.13348e-07
2.81051e-08
-3.1822e-07
2.55734e-08
-3.22583e-07
2.29436e-08
-3.26419e-07
2.02195e-08
-3.29713e-07
1.74057e-08
-3.32448e-07
1.45071e-08
-3.3461e-07
1.15292e-08
-3.36186e-07
8.47819e-09
-3.37164e-07
5.36102e-09
-3.37533e-07
2.18534e-09
-3.37285e-07
-1.04041e-09
-3.36413e-07
-4.30698e-09
-3.34911e-07
-7.60427e-09
-3.32776e-07
-1.09214e-08
-3.30008e-07
-1.42465e-08
-3.26609e-07
-1.75672e-08
-3.22581e-07
-2.08699e-08
-3.17933e-07
-2.41407e-08
-3.12673e-07
-2.73648e-08
-3.06813e-07
-3.05267e-08
-3.00369e-07
-3.36105e-08
-2.93359e-07
-3.65999e-08
-2.85804e-07
-3.94779e-08
-2.77728e-07
-4.22278e-08
-2.69159e-07
-4.48323e-08
-2.60127e-07
-4.72744e-08
-2.50666e-07
-4.95372e-08
-2.40813e-07
-5.16041e-08
-2.30607e-07
-5.34589e-08
-2.2009e-07
-5.50862e-08
-2.09308e-07
-5.6471e-08
-1.98307e-07
-5.75998e-08
-1.87138e-07
-5.84597e-08
-1.75852e-07
-5.90394e-08
-1.64502e-07
-5.93287e-08
-1.53143e-07
-5.93194e-08
-1.41832e-07
-5.90045e-08
-1.30623e-07
-5.83795e-08
-1.19576e-07
-5.74415e-08
-1.08745e-07
-5.619e-08
-9.81872e-08
-5.46269e-08
-8.79579e-08
-5.27567e-08
-7.81102e-08
-5.05866e-08
-6.86955e-08
-4.81272e-08
-5.97622e-08
-4.53923e-08
-5.13554e-08
-4.23993e-08
-4.35161e-08
-3.91702e-08
-3.62804e-08
-3.57318e-08
-2.96789e-08
-3.21163e-08
-2.37361e-08
-2.83628e-08
-1.84692e-08
-2.4518e-08
-1.38877e-08
-2.06377e-08
-9.99278e-09
-1.67889e-08
-6.77679e-09
-1.30515e-08
-4.22293e-09
-9.52113e-09
-2.30548e-09
-6.31239e-09
-9.9043e-10
-3.56125e-09
-2.36891e-10
-1.42882e-09
-1.17106e-10
-4.33268e-10
1.13375e-09
-1.70308e-09
4.28937e-09
-3.78753e-09
8.06513e-09
-6.66785e-09
1.22433e-08
-1.03245e-08
1.66558e-08
-1.47351e-08
2.11655e-08
-1.98735e-08
2.56625e-08
-2.57093e-08
3.006e-08
-3.22082e-08
3.42908e-08
-3.93319e-08
3.83042e-08
-4.70392e-08
4.20631e-08
-5.52864e-08
4.55414e-08
-6.40277e-08
4.87223e-08
-7.32162e-08
5.1596e-08
-8.28043e-08
5.41586e-08
-9.27442e-08
5.64106e-08
-1.02988e-07
5.83562e-08
-1.1349e-07
6.00019e-08
-1.24202e-07
6.13562e-08
-1.35081e-07
6.24291e-08
-1.46083e-07
6.32312e-08
-1.57165e-07
6.37736e-08
-1.68286e-07
6.40674e-08
-1.79408e-07
6.41237e-08
-1.90492e-07
6.39532e-08
-2.01501e-07
6.35663e-08
-2.12402e-07
6.29725e-08
-2.23161e-07
6.2181e-08
-2.33744e-07
6.12e-08
-2.44121e-07
6.00373e-08
-2.54262e-07
5.86998e-08
-2.64138e-07
5.71938e-08
-2.7372e-07
5.5525e-08
-2.82981e-07
5.36986e-08
-2.91896e-07
5.17193e-08
-3.00438e-07
4.95914e-08
-3.08582e-07
4.73187e-08
-3.16305e-07
4.49051e-08
-3.23582e-07
4.23541e-08
-3.30392e-07
3.96692e-08
-3.36711e-07
3.68541e-08
-3.42518e-07
3.39126e-08
-3.47794e-07
3.08488e-08
-3.52517e-07
2.7667e-08
-3.5667e-07
2.43721e-08
-3.60234e-07
2.09696e-08
-3.63192e-07
1.74655e-08
-3.65529e-07
1.38666e-08
-3.67232e-07
1.01804e-08
-3.68286e-07
6.41531e-09
-3.68681e-07
2.58054e-09
-3.68408e-07
-1.31368e-09
-3.67459e-07
-5.25619e-09
-3.65828e-07
-9.23483e-09
-3.63513e-07
-1.32365e-08
-3.60513e-07
-1.7247e-08
-3.56829e-07
-2.12512e-08
-3.52465e-07
-2.52332e-08
-3.4743e-07
-2.91761e-08
-3.41733e-07
-3.30621e-08
-3.35387e-07
-3.68727e-08
-3.28408e-07
-4.0589e-08
-3.20817e-07
-4.41912e-08
-3.12636e-07
-4.76593e-08
-3.0389e-07
-5.09731e-08
-2.94611e-07
-5.4112e-08
-2.84829e-07
-5.70557e-08
-2.74582e-07
-5.9784e-08
-2.63909e-07
-6.22771e-08
-2.52853e-07
-6.45158e-08
-2.41457e-07
-6.64814e-08
-2.29772e-07
-6.81565e-08
-2.17847e-07
-6.95247e-08
-2.05736e-07
-7.05709e-08
-1.93494e-07
-7.12815e-08
-1.81178e-07
-7.16446e-08
-1.68847e-07
-7.16504e-08
-1.5656e-07
-7.12911e-08
-1.44379e-07
-7.05611e-08
-1.32363e-07
-6.94574e-08
-1.20573e-07
-6.79796e-08
-1.0907e-07
-6.61303e-08
-9.79109e-08
-6.39152e-08
-8.71542e-08
-6.13434e-08
-7.6854e-08
-5.84275e-08
-6.7062e-08
-5.51843e-08
-5.78263e-08
-5.16349e-08
-4.91909e-08
-4.78056e-08
-4.11948e-08
-4.37279e-08
-3.38713e-08
-3.94398e-08
-2.72477e-08
-3.49864e-08
-2.13443e-08
-3.04214e-08
-1.6174e-08
-2.58081e-08
-1.1742e-08
-2.12209e-08
-8.04547e-09
-1.6748e-08
-5.07389e-09
-1.24927e-08
-2.80935e-09
-8.57693e-09
-1.22783e-09
-5.14277e-09
-3.01062e-10
-2.35559e-09
-4.1817e-10
-5.04591e-10
1.63834e-09
-1.96817e-09
5.75294e-09
-4.35049e-09
1.04475e-08
-7.61669e-09
1.55095e-08
-1.17335e-08
2.07725e-08
-1.66669e-08
2.6099e-08
-2.23814e-08
3.1377e-08
-2.88388e-08
3.65173e-08
-3.59982e-08
4.14502e-08
-4.38163e-08
4.61222e-08
-5.22472e-08
5.0494e-08
-6.12434e-08
5.45377e-08
-7.07559e-08
5.82348e-08
-8.07347e-08
6.15749e-08
-9.11296e-08
6.45535e-08
-1.0189e-07
6.71711e-08
-1.12966e-07
6.94323e-08
-1.24308e-07
7.13442e-08
-1.35869e-07
7.29164e-08
-1.47599e-07
7.41599e-08
-1.59455e-07
7.50867e-08
-1.71391e-07
7.57092e-08
-1.83363e-07
7.604e-08
-1.95331e-07
7.60919e-08
-2.07255e-07
7.5877e-08
-2.19096e-07
7.5407e-08
-2.30817e-07
7.46932e-08
-2.42381e-07
7.37458e-08
-2.53756e-07
7.25745e-08
-2.64907e-07
7.11883e-08
-2.75802e-07
6.95953e-08
-2.86411e-07
6.78028e-08
-2.96704e-07
6.58176e-08
-3.06651e-07
6.36457e-08
-3.16224e-07
6.12927e-08
-3.25397e-07
5.87637e-08
-3.34141e-07
5.60633e-08
-3.42432e-07
5.31962e-08
-3.50245e-07
5.01665e-08
-3.57554e-07
4.69786e-08
-3.64337e-07
4.36369e-08
-3.7057e-07
4.01459e-08
-3.76232e-07
3.65106e-08
-3.81301e-07
3.27362e-08
-3.85758e-07
2.88287e-08
-3.89583e-07
2.47945e-08
-3.92758e-07
2.06408e-08
-3.95267e-07
1.63757e-08
-3.97095e-07
1.20082e-08
-3.98227e-07
7.54816e-09
-3.98653e-07
3.00662e-09
-3.98363e-07
-1.60435e-09
-3.97347e-07
-6.27157e-09
-3.95602e-07
-1.09807e-08
-3.93122e-07
-1.57162e-08
-3.89907e-07
-2.04614e-08
-3.8596e-07
-2.51986e-08
-3.81284e-07
-2.9909e-08
-3.75888e-07
-3.45725e-08
-3.69781e-07
-3.91684e-08
-3.62979e-07
-4.3675e-08
-3.55498e-07
-4.80698e-08
-3.4736e-07
-5.23298e-08
-3.38588e-07
-5.64315e-08
-3.2921e-07
-6.03511e-08
-3.19257e-07
-6.40644e-08
-3.08765e-07
-6.75477e-08
-2.97772e-07
-7.07773e-08
-2.86319e-07
-7.37298e-08
-2.74452e-07
-7.63828e-08
-2.62219e-07
-7.87146e-08
-2.49671e-07
-8.07047e-08
-2.36862e-07
-8.23338e-08
-2.23848e-07
-8.35844e-08
-2.10689e-07
-8.44406e-08
-1.97445e-07
-8.48887e-08
-1.84178e-07
-8.49173e-08
-1.70952e-07
-8.45173e-08
-1.5783e-07
-8.36825e-08
-1.44878e-07
-8.24096e-08
-1.3216e-07
-8.06983e-08
-1.19738e-07
-7.8552e-08
-1.07675e-07
-7.59776e-08
-9.60328e-08
-7.2986e-08
-8.48679e-08
-6.95924e-08
-7.42356e-08
-6.58166e-08
-6.41872e-08
-6.16833e-08
-5.47698e-08
-5.72231e-08
-4.60252e-08
-5.24725e-08
-3.799e-08
-4.7475e-08
-3.06945e-08
-4.2282e-08
-2.41624e-08
-3.69535e-08
-1.84106e-08
-3.15599e-08
-1.34486e-08
-2.61829e-08
-9.27895e-09
-2.09176e-08
-5.89751e-09
-1.58742e-08
-3.29419e-09
-1.11803e-08
-1.45448e-09
-6.98248e-09
-3.61582e-10
-3.44849e-09
-7.79755e-10
-5.72345e-10
2.21068e-09
-2.22193e-09
7.40252e-09
-4.89216e-09
1.31177e-08
-8.5333e-09
1.91507e-08
-1.3099e-08
2.53382e-08
-1.8544e-08
3.15441e-08
-2.48233e-08
3.76562e-08
-3.18905e-08
4.35845e-08
-3.9698e-08
4.92578e-08
-4.81969e-08
5.46211e-08
-5.73367e-08
5.96337e-08
-6.70655e-08
6.42665e-08
-7.7331e-08
6.85003e-08
-8.808e-08
7.23239e-08
-9.92595e-08
7.57329e-08
-1.10816e-07
7.8728e-08
-1.22698e-07
8.13142e-08
-1.34854e-07
8.34995e-08
-1.47232e-07
8.52945e-08
-1.59783e-07
8.67114e-08
-1.7246e-07
8.77635e-08
-1.85215e-07
8.84647e-08
-1.98005e-07
8.88293e-08
-2.10784e-07
8.88714e-08
-2.23512e-07
8.86047e-08
-2.36147e-07
8.80425e-08
-2.48651e-07
8.71973e-08
-2.60987e-07
8.6081e-08
-2.73117e-07
8.47046e-08
-2.85007e-07
8.30783e-08
-2.96623e-07
8.12113e-08
-3.07932e-07
7.91121e-08
-3.18903e-07
7.67885e-08
-3.29505e-07
7.42476e-08
-3.39708e-07
7.14957e-08
-3.49483e-07
6.85388e-08
-3.58802e-07
6.53824e-08
-3.67638e-07
6.20318e-08
-3.75963e-07
5.84921e-08
-3.83753e-07
5.47683e-08
-3.90982e-07
5.08657e-08
-3.97626e-07
4.67897e-08
-4.03661e-07
4.2546e-08
-4.09066e-07
3.81409e-08
-4.13818e-07
3.35812e-08
-4.17898e-07
2.88748e-08
-4.21287e-07
2.40299e-08
-4.23968e-07
1.9056e-08
-4.25923e-07
1.39636e-08
-4.27139e-07
8.76425e-09
-4.27603e-07
3.47079e-09
-4.27305e-07
-1.90276e-09
-4.26236e-07
-7.34105e-09
-4.24389e-07
-1.28274e-08
-4.21761e-07
-1.83439e-08
-4.18351e-07
-2.38712e-08
-4.14161e-07
-2.93886e-08
-4.09196e-07
-3.48743e-08
-4.03463e-07