/*--------------------------------*- C++ -*----------------------------------*\
| =========                 |                                                 |
| \\      /  F ield         | OpenFOAM: The Open Source CFD Toolbox           |
|  \\    /   O peration     | Version:  2512                                  |
|   \\  /    A nd           | Website:  www.openfoam.com                      |
|    \\/     M anipulation  |                                                 |
\*---------------------------------------------------------------------------*/
FoamFile
{
    version     2.0;
    format      ascii;
    arch        "LSB;label=32;scalar=64";
    class       surfaceScalarField;
    location    "0.2";
    object      phi;
}
// * * * * * * * * * * * * * * * * * * * * * * * * * * * * * * * * * * * * * //

dimensions      [0 3 -1 0 0 0 0];

oriented        oriented;

internalField   nonuniform List<scalar> 
19800
(
6.8184e-11
-6.81548e-11
2.31811e-10
-1.63629e-10
4.18712e-10
-1.86895e-10
5.43155e-10
-1.24444e-10
5.69994e-10
-2.68348e-11
4.95201e-10
7.4766e-11
3.21007e-10
1.74198e-10
5.60131e-11
2.64997e-10
-2.91035e-10
3.47047e-10
-7.12103e-10
4.21064e-10
-1.19934e-09
4.87238e-10
-1.74553e-09
5.46182e-10
-2.34352e-09
5.97975e-10
-2.98671e-09
6.43189e-10
-3.66914e-09
6.82422e-10
-4.38495e-09
7.15809e-10
-5.12914e-09
7.44209e-10
-5.89717e-09
7.6803e-10
-6.68427e-09
7.87104e-10
-7.48644e-09
8.02189e-10
-8.29936e-09
8.12916e-10
-9.11869e-09
8.1933e-10
-9.9413e-09
8.2262e-10
-1.07643e-08
8.22982e-10
-1.15844e-08
8.20074e-10
-1.23988e-08
8.14406e-10
-1.32049e-08
8.06156e-10
-1.40001e-08
7.95166e-10
-1.47816e-08
7.81492e-10
-1.55471e-08
7.65493e-10
-1.62948e-08
7.47739e-10
-1.70232e-08
7.2836e-10
-1.77301e-08
7.06909e-10
-1.84136e-08
6.83482e-10
-1.90721e-08
6.58536e-10
-1.97042e-08
6.32107e-10
-2.03083e-08
6.0414e-10
-2.08831e-08
5.7479e-10
-2.14273e-08
5.44149e-10
-2.19393e-08
5.12049e-10
-2.24176e-08
4.78263e-10
-2.28605e-08
4.42895e-10
-2.32668e-08
4.06334e-10
-2.36356e-08
3.68742e-10
-2.39653e-08
3.29702e-10
-2.4254e-08
2.88716e-10
-2.44997e-08
2.45776e-10
-2.47009e-08
2.01167e-10
-2.48561e-08
1.55228e-10
-2.49643e-08
1.08202e-10
-2.50244e-08
6.00372e-11
-2.50351e-08
1.07372e-11
-2.49955e-08
-3.95664e-11
-2.49045e-08
-9.10744e-11
-2.47606e-08
-1.4386e-10
-2.45633e-08
-1.9727e-10
-2.43127e-08
-2.50649e-10
-2.40088e-08
-3.03857e-10
-2.36521e-08
-3.5669e-10
-2.32433e-08
-4.08847e-10
-2.2783e-08
-4.60337e-10
-2.22719e-08
-5.11022e-10
-2.17117e-08
-5.60226e-10
-2.11043e-08
-6.07429e-10
-2.04516e-08
-6.52632e-10
-1.9756e-08
-6.95674e-10
-1.902e-08
-7.35969e-10
-1.82468e-08
-7.73171e-10
-1.74395e-08
-8.07339e-10
-1.66012e-08
-8.3831e-10
-1.57356e-08
-8.65558e-10
-1.48469e-08
-8.88711e-10
-1.39392e-08
-9.07662e-10
-1.30171e-08
-9.2214e-10
-1.20854e-08
-9.31708e-10
-1.11492e-08
-9.36194e-10
-1.02136e-08
-9.35649e-10
-9.28371e-09
-9.29842e-10
-8.36549e-09
-9.18226e-10
-7.46499e-09
-9.00501e-10
-6.58808e-09
-8.76912e-10
-5.74017e-09
-8.47913e-10
-4.92645e-09
-8.13708e-10
-4.15219e-09
-7.7425e-10
-3.42262e-09
-7.29573e-10
-2.74278e-09
-6.79848e-10
-2.11771e-09
-6.25075e-10
-1.55254e-09
-5.65161e-10
-1.05228e-09
-5.00259e-10
-6.21546e-10
-4.30737e-10
-2.64393e-10
-3.57156e-10
1.59261e-11
-2.80317e-10
2.17134e-10
-2.01203e-10
3.38569e-10
-1.21433e-10
3.82468e-10
-4.38969e-11
3.55444e-10
2.70284e-11
2.7084e-10
8.46048e-11
1.53164e-10
1.17664e-10
4.46264e-11
1.08511e-10
4.46002e-11
7.68357e-11
-1.45009e-10
2.35675e-10
-3.22453e-10
3.90468e-10
-3.417e-10
4.26888e-10
-1.60893e-10
2.76802e-10
1.23266e-10
-8.94401e-11
4.41007e-10
-6.76853e-10
7.61589e-10
-1.48111e-09
1.06926e-09
-2.49093e-09
1.35686e-09
-3.69088e-09
1.62102e-09
-5.06559e-09
1.86196e-09
-6.59803e-09
2.07863e-09
-8.27147e-09
2.27144e-09
-1.00702e-08
2.44192e-09
-1.19781e-08
2.59029e-09
-1.39807e-08
2.71842e-09
-1.6064e-08
2.82753e-09
-1.82144e-08
2.91837e-09
-2.04196e-08
2.99227e-09
-2.26679e-08
3.0505e-09
-2.49478e-08
3.09286e-09
-2.72493e-08
3.12074e-09
-2.95625e-08
3.13584e-09
-3.18779e-08
3.1384e-09
-3.4187e-08
3.12917e-09
-3.64822e-08
3.10956e-09
-3.87556e-08
3.07963e-09
-4.09998e-08
3.03936e-09
-4.3208e-08
2.9897e-09
-4.5374e-08
2.93147e-09
-4.74915e-08
2.86524e-09
-4.95547e-08
2.79153e-09
-5.15582e-08
2.71042e-09
-5.34969e-08
2.62214e-09
-5.53655e-08
2.52717e-09
-5.71591e-08
2.42569e-09
-5.88729e-08
2.31792e-09
-6.05024e-08
2.20431e-09
-6.20431e-08
2.08487e-09
-6.34903e-08
1.95931e-09
-6.48396e-08
1.82756e-09
-6.60866e-08
1.68991e-09
-6.7227e-08
1.54675e-09
-6.82565e-08
1.39817e-09
-6.91705e-08
1.24375e-09
-6.99649e-08
1.0831e-09
-7.06355e-08
9.16391e-10
-7.11785e-08
7.44101e-10
-7.15899e-08
5.66667e-10
-7.18663e-08
3.84625e-10
-7.20048e-08
1.9845e-10
-7.20023e-08
8.33978e-12
-7.18565e-08
-1.85452e-10
-7.1565e-08
-3.82503e-10
-7.11266e-08
-5.82296e-10
-7.054e-08
-7.83857e-10
-6.98049e-08
-9.85773e-10
-6.89219e-08
-1.18692e-09
-6.78919e-08
-1.38663e-09
-6.67166e-08
-1.58418e-09
-6.53984e-08
-1.77856e-09
-6.39408e-08
-1.96866e-09
-6.23476e-08
-2.15335e-09
-6.06237e-08
-2.33141e-09
-5.87746e-08
-2.50169e-09
-5.68072e-08
-2.66309e-09
-5.47286e-08
-2.81455e-09
-5.25467e-08
-2.95505e-09
-5.02705e-08
-3.08362e-09
-4.79095e-08
-3.19928e-09
-4.54741e-08
-3.30097e-09
-4.29752e-08
-3.38756e-09
-4.04249e-08
-3.45796e-09
-3.78359e-08
-3.51115e-09
-3.52213e-08
-3.54631e-09
-3.25947e-08
-3.56284e-09
-2.99702e-08
-3.56011e-09
-2.73627e-08
-3.53735e-09
-2.47871e-08
-3.49377e-09
-2.22586e-08
-3.429e-09
-1.97924e-08
-3.34313e-09
-1.74038e-08
-3.23649e-09
-1.51081e-08
-3.10949e-09
-1.29198e-08
-2.9625e-09
-1.08535e-08
-2.79586e-09
-8.92339e-09
-2.61e-09
-7.14314e-09
-2.40532e-09
-5.52592e-09
-2.18238e-09
-4.0839e-09
-1.94228e-09
-2.82803e-09
-1.68661e-09
-1.7676e-09
-1.41759e-09
-9.09398e-10
-1.13851e-09
-2.5661e-10
-8.53987e-10
1.92464e-10
-5.70504e-10
4.46289e-10
-2.97724e-10
5.2289e-10
-4.95738e-11
4.53996e-10
1.53511e-10
2.90741e-10
2.80953e-10
1.07581e-10
2.91716e-10
1.52165e-10
1.12694e-11
-1.56273e-10
2.31619e-11
-3.34356e-10
-3.42995e-11
-2.84223e-10
-2.65168e-10
6.99828e-11
-7.42681e-10
6.00757e-10
-1.50956e-09
1.20786e-09
-2.58185e-09
1.83386e-09
-3.96051e-09
2.44789e-09
-5.63521e-09
3.03155e-09
-7.59085e-09
3.57665e-09
-9.80704e-09
4.07814e-09
-1.2262e-08
4.5336e-09
-1.49332e-08
4.94264e-09
-1.77971e-08
5.30582e-09
-2.08316e-08
5.62478e-09
-2.40142e-08
5.90106e-09
-2.73237e-08
6.13701e-09
-3.07399e-08
6.33455e-09
-3.42431e-08
6.49553e-09
-3.78148e-08
6.62224e-09
-4.14383e-08
6.71635e-09
-4.50971e-08
6.77948e-09
-4.87755e-08
6.81422e-09
-5.24592e-08
6.82214e-09
-5.61348e-08
6.80475e-09
-5.97891e-08
6.76385e-09
-6.34099e-08
6.70045e-09
-6.6986e-08
6.61544e-09
-7.05065e-08
6.51023e-09
-7.3961e-08
6.38601e-09
-7.73396e-08
6.24379e-09
-8.06326e-08
6.08452e-09
-8.3831e-08
5.90884e-09
-8.69261e-08
5.71726e-09
-8.99094e-08
5.51043e-09
-9.27726e-08
5.28888e-09
-9.55077e-08
5.05308e-09
-9.8107e-08
4.80355e-09
-1.00563e-07
4.54041e-09
-1.02867e-07
4.26352e-09
-1.05012e-07
3.97307e-09
-1.06992e-07
3.66947e-09
-1.08798e-07
3.35318e-09
-1.10424e-07
3.02435e-09
-1.11863e-07
2.68282e-09
-1.13109e-07
2.3286e-09
-1.14155e-07
1.9621e-09
-1.14995e-07
1.58407e-09
-1.15623e-07
1.19535e-09
-1.16036e-07
7.96819e-10
-1.16226e-07
3.8939e-10
-1.16192e-07
-2.59121e-11
-1.15929e-07
-4.482e-10
-1.15435e-07
-8.76583e-10
-1.14708e-07
-1.30958e-09
-1.13747e-07
-1.74516e-09
-1.12551e-07
-2.18133e-09
-1.11122e-07
-2.61617e-09
-1.09461e-07
-3.04769e-09
-1.07571e-07
-3.47394e-09
-1.05457e-07
-3.89298e-09
-1.03123e-07
-4.30258e-09
-1.00576e-07
-4.70018e-09
-9.7824e-08
-5.08338e-09
-9.48757e-08
-5.44999e-09
-9.17412e-08
-5.79763e-09
-8.84319e-08
-6.1238e-09
-8.49608e-08
-6.42616e-09
-8.13417e-08
-6.70267e-09
-7.75899e-08
-6.95114e-09
-7.37217e-08
-7.1692e-09
-6.97547e-08
-7.35452e-09
-6.57076e-08
-7.50503e-09
-6.16e-08
-7.6188e-09
-5.74523e-08
-7.69404e-09
-5.32859e-08
-7.72923e-09
-4.91229e-08
-7.72309e-09
-4.49859e-08
-7.67434e-09
-4.08979e-08
-7.5818e-09
-3.68821e-08
-7.44476e-09
-3.29621e-08
-7.2631e-09
-2.91615e-08
-7.0371e-09
-2.55037e-08
-6.7673e-09
-2.20119e-08
-6.45433e-09
-1.87087e-08
-6.09902e-09
-1.56162e-08
-5.70257e-09
-1.2755e-08
-5.26646e-09
-1.01448e-08
-4.79264e-09
-7.80314e-09
-4.28392e-09
-5.74556e-09
-3.74419e-09
-3.98441e-09
-3.17873e-09
-2.52804e-09
-2.59489e-09
-1.37946e-09
-2.00257e-09
-5.34642e-10
-1.41532e-09
1.96649e-11
-8.52034e-10
3.09056e-10
-3.38981e-10
3.75597e-10
8.69414e-11
2.8218e-10
3.74345e-10
1.17153e-10
4.56767e-10
2.69314e-10
-4.18534e-11
-1.1442e-10
-1.93647e-10
-1.82592e-10
-5.11234e-10
3.33697e-11
-1.07759e-09
6.36312e-10
-1.95734e-09
1.48052e-09
-3.19146e-09
2.442e-09
-4.79968e-09
3.44206e-09
-6.78555e-09
4.43378e-09
-9.14107e-09
5.38707e-09
-1.18491e-08
6.2847e-09
-1.4888e-08
7.11702e-09
-1.82322e-08
7.87783e-09
-2.18547e-08
8.56513e-09
-2.57279e-08
9.17898e-09
-2.98232e-08
9.72006e-09
-3.41127e-08
1.01905e-08
-3.85694e-08
1.05937e-08
-4.31667e-08
1.09319e-08
-4.78799e-08
1.12087e-08
-5.26848e-08
1.14272e-08
-5.75587e-08
1.15902e-08
-6.24801e-08
1.17009e-08
-6.74285e-08
1.17626e-08
-7.23845e-08
1.17781e-08
-7.73298e-08
1.175e-08
-8.22472e-08
1.16813e-08
-8.71203e-08
1.15736e-08
-9.19336e-08
1.14288e-08
-9.66725e-08
1.12491e-08
-1.01323e-07
1.10364e-08
-1.05871e-07
1.07921e-08
-1.10304e-07
1.05177e-08
-1.1461e-07
1.02146e-08
-1.18776e-07
9.88354e-09
-1.22791e-07
9.52543e-09
-1.26644e-07
9.14113e-09
-1.30322e-07
8.73154e-09
-1.33816e-07
8.29738e-09
-1.37115e-07
7.83905e-09
-1.40208e-07
7.35664e-09
-1.43085e-07
6.85052e-09
-1.45737e-07
6.3214e-09
-1.48154e-07
5.7698e-09
-1.50326e-07
5.19611e-09
-1.52243e-07
4.60073e-09
-1.53899e-07
3.98425e-09
-1.55284e-07
3.34751e-09
-1.56392e-07
2.69148e-09
-1.57214e-07
2.01741e-09
-1.57744e-07
1.32692e-09
-1.57976e-07
6.21776e-10
-1.57906e-07
-9.63459e-11
-1.57529e-07
-8.25636e-10
-1.56841e-07
-1.56403e-09
-1.55842e-07
-2.30913e-09
-1.54529e-07
-3.058e-09
-1.52903e-07
-3.80734e-09
-1.50965e-07
-4.55392e-09
-1.48718e-07
-5.29462e-09
-1.46166e-07
-6.02604e-09
-1.43314e-07
-6.74447e-09
-1.40171e-07
-7.44607e-09
-1.36744e-07
-8.12703e-09
-1.33044e-07
-8.78343e-09
-1.29083e-07
-9.4112e-09
-1.24874e-07
-1.00063e-08
-1.20433e-07
-1.05646e-08
-1.15777e-07
-1.10823e-08
-1.10924e-07
-1.15555e-08
-1.05895e-07
-1.19802e-08
-1.00712e-07
-1.23528e-08
-9.53969e-08
-1.26694e-08
-8.99753e-08
-1.29266e-08
-8.4473e-08
-1.31211e-08
-7.8917e-08
-1.325e-08
-7.33353e-08
-1.33109e-08
-6.77569e-08
-1.33015e-08
-6.22117e-08
-1.32196e-08
-5.67298e-08
-1.30637e-08
-5.13418e-08
-1.28328e-08
-4.60784e-08
-1.25265e-08
-4.09705e-08
-1.2145e-08
-3.60489e-08
-1.1689e-08
-3.13436e-08
-1.11596e-08
-2.68842e-08
-1.05584e-08
-2.26989e-08
-9.88786e-09
-1.88144e-08
-9.15092e-09
-1.52554e-08
-8.35164e-09
-1.20439e-08
-7.49544e-09
-9.1986e-09
-6.5895e-09
-6.73409e-09
-5.64324e-09
-4.65984e-09
-4.66914e-09
-2.97861e-09
-3.6838e-09
-1.6847e-09
-2.70924e-09
-7.61771e-10
-1.77495e-09
-1.80137e-10
-9.20603e-10
1.06486e-10
-1.99687e-10
1.64918e-10
3.15893e-10
8.72784e-11
5.34412e-10
3.56594e-10
-9.2785e-11
-2.16257e-11
-4.16595e-10
1.41226e-10
-1.01722e-09
6.33979e-10
-1.95328e-09
1.57238e-09
-3.27522e-09
2.80245e-09
-5.01644e-09
4.1832e-09
-7.19402e-09
5.61965e-09
-9.81047e-09
7.05022e-09
-1.28565e-08
8.43314e-09
-1.63154e-08
9.74362e-09
-2.01626e-08
1.09642e-08
-2.43707e-08
1.20859e-08
-2.89094e-08
1.31038e-08
-3.37462e-08
1.40158e-08
-3.8849e-08
1.48229e-08
-4.41857e-08
1.55272e-08
-4.97235e-08
1.61316e-08
-5.54318e-08
1.66401e-08
-6.12801e-08
1.70571e-08
-6.72398e-08
1.73869e-08
-7.32836e-08
1.76339e-08
-7.93852e-08
1.78025e-08
-8.55195e-08
1.7897e-08
-9.1663e-08
1.79216e-08
-9.77932e-08
1.78802e-08
-1.03888e-07
1.77765e-08
-1.09929e-07
1.76138e-08
-1.15895e-07
1.73949e-08
-1.21768e-07
1.71227e-08
-1.27532e-07
1.67998e-08
-1.33168e-07
1.64285e-08
-1.38661e-07
1.60108e-08
-1.43995e-07
1.55488e-08
-1.49156e-07
1.50438e-08
-1.54127e-07
1.44971e-08
-1.58896e-07
1.391e-08
-1.63448e-07
1.32836e-08
-1.6777e-07
1.2619e-08
-1.71848e-07
1.19169e-08
-1.75669e-07
1.11779e-08
-1.79221e-07
1.04028e-08
-1.82492e-07
9.59244e-09
-1.8547e-07
8.74764e-09
-1.88143e-07
7.86911e-09
-1.905e-07
6.95792e-09
-1.92531e-07
6.01526e-09
-1.94226e-07
5.04249e-09
-1.95576e-07
4.04126e-09
-1.96572e-07
3.01346e-09
-1.97207e-07
1.96136e-09
-1.97472e-07
8.87647e-10
-1.97364e-07
-2.04882e-10
-1.96876e-07
-1.31345e-09
-1.96005e-07
-2.4348e-09
-1.94749e-07
-3.56503e-09
-1.93108e-07
-4.69986e-09
-1.9108e-07
-5.83488e-09
-1.88669e-07
-6.9654e-09
-1.85877e-07
-8.08643e-09
-1.8271e-07
-9.19278e-09
-1.79175e-07
-1.0279e-08
-1.75282e-07
-1.13396e-08
-1.71041e-07
-1.23685e-08
-1.66464e-07
-1.336e-08
-1.61567e-07
-1.43082e-08
-1.56366e-07
-1.5207e-08
-1.50881e-07
-1.60502e-08
-1.45131e-07
-1.68317e-08
-1.39141e-07
-1.7546e-08
-1.32934e-07
-1.81872e-08
-1.26537e-07
-1.87495e-08
-1.19979e-07
-1.92275e-08
-1.1329e-07
-1.9616e-08
-1.065e-07
-1.99104e-08
-9.96439e-08
-2.01063e-08
-9.27547e-08
-2.02001e-08
-8.58679e-08
-2.01883e-08
-7.90194e-08
-2.00681e-08
-7.2246e-08
-1.98371e-08
-6.55847e-08
-1.94941e-08
-5.90726e-08
-1.90385e-08
-5.27471e-08
-1.84705e-08
-4.66449e-08
-1.77911e-08
-4.08023e-08
-1.70022e-08
-3.52544e-08
-1.61063e-08
-3.00348e-08
-1.51075e-08
-2.51749e-08
-1.40108e-08
-2.07035e-08
-1.2823e-08
-1.66462e-08
-1.15527e-08
-1.30246e-08
-1.02112e-08
-9.85496e-09
-8.81285e-09
-7.14782e-09
-7.37629e-09
-4.90597e-09
-5.92566e-09
-3.12307e-09
-4.49214e-09
-1.7818e-09
-3.11623e-09
-8.51529e-10
-1.85087e-09
-2.85753e-10
-7.65447e-10
-1.91165e-11
4.92499e-11
3.60809e-11
4.79215e-10
3.92679e-10
-1.5296e-10
1.31314e-10
-6.58061e-10
6.46323e-10
-1.55372e-09
1.52961e-09
-2.87784e-09
2.89652e-09
-4.66422e-09
4.58882e-09
-6.93516e-09
6.45412e-09
-9.70159e-09
8.38609e-09
-1.29615e-08
1.03101e-08
-1.67045e-08
1.21762e-08
-2.091e-08
1.39491e-08
-2.5553e-08
1.56072e-08
-3.06031e-08
1.7136e-08
-3.60267e-08
1.85274e-08
-4.17892e-08
1.97782e-08
-4.78543e-08
2.0888e-08
-5.41859e-08
2.18587e-08
-6.07479e-08
2.26936e-08
-6.75053e-08
2.33975e-08
-7.44236e-08
2.39754e-08
-8.14698e-08
2.44331e-08
-8.86123e-08
2.47764e-08
-9.58208e-08
2.5011e-08
-1.03066e-07
2.51425e-08
-1.10322e-07
2.51767e-08
-1.1756e-07
2.51186e-08
-1.24756e-07
2.49729e-08
-1.31887e-07
2.47445e-08
-1.38929e-07
2.44373e-08
-1.45862e-07
2.40551e-08
-1.52663e-07
2.36013e-08
-1.59314e-07
2.30791e-08
-1.65795e-07
2.24915e-08
-1.72086e-07
2.18407e-08
-1.78172e-07
2.1129e-08
-1.84033e-07
2.03583e-08
-1.89653e-07
1.95303e-08
-1.95016e-07
1.86466e-08
-2.00106e-07
1.77085e-08
-2.04906e-07
1.67171e-08
-2.09402e-07
1.56737e-08
-2.13579e-07
1.45795e-08
-2.17422e-07
1.34357e-08
-2.20918e-07
1.22436e-08
-2.24053e-07
1.10043e-08
-2.26815e-07
9.71961e-09
-2.29191e-07
8.39132e-09
-2.3117e-07
7.02147e-09
-2.32741e-07
5.61244e-09
-2.33895e-07
4.16713e-09
-2.34622e-07
2.68879e-09
-2.34915e-07
1.18097e-09
-2.34768e-07
-3.52479e-10
-2.34174e-07
-1.90732e-09
-2.3313e-07
-3.47884e-09
-2.31633e-07
-5.06171e-09
-2.29683e-07
-6.65009e-09
-2.2728e-07
-8.23786e-09
-2.24427e-07
-9.81866e-09
-2.21127e-07
-1.13857e-08
-2.17389e-07
-1.29316e-08
-2.13219e-07
-1.44488e-08
-2.08629e-07
-1.59296e-08
-2.03631e-07
-1.7366e-08
-1.98241e-07
-1.875e-08
-1.92477e-07
-2.00732e-08
-1.86356e-07
-2.13272e-08
-1.79903e-07
-2.25035e-08
-1.73141e-07
-2.3594e-08
-1.66096e-07
-2.45906e-08
-1.58798e-07
-2.54852e-08
-1.51278e-07
-2.627e-08
-1.43568e-07
-2.69375e-08
-1.35703e-07
-2.74807e-08
-1.2772e-07
-2.78931e-08
-1.19658e-07
-2.81691e-08
-1.11554e-07
-2.83033e-08
-1.03451e-07
-2.82912e-08
-9.53904e-08
-2.8129e-08
-8.74138e-08
-2.78137e-08
-7.95642e-08
-2.73437e-08
-7.18846e-08
-2.67181e-08
-6.44177e-08
-2.59374e-08
-5.72058e-08
-2.50031e-08
-5.02902e-08
-2.39177e-08
-4.37109e-08
-2.26856e-08
-3.7506e-08
-2.13125e-08
-3.17109e-08
-1.98059e-08
-2.6358e-08
-1.81759e-08
-2.14759e-08
-1.64348e-08
-1.70886e-08
-1.45985e-08
-1.32143e-08
-1.26872e-08
-9.86454e-09
-1.0726e-08
-7.04295e-09
-8.74725e-09
-4.74375e-09
-6.79135e-09
-2.9503e-09
-4.90968e-09
-1.63349e-09
-3.16768e-09
-7.49819e-10
-1.64911e-09
-2.39835e-10
-4.60734e-10
-2.54459e-11
2.6483e-10
3.67237e-10
-2.17771e-10
3.49095e-10
-9.13787e-10
1.34232e-09
-2.11215e-09
2.72798e-09
-3.83297e-09
4.61732e-09
-6.09357e-09
6.84944e-09
-8.90462e-09
9.26517e-09
-1.22685e-08
1.175e-08
-1.61781e-08
1.42197e-08
-2.06175e-08
1.66156e-08
-2.55646e-08
1.88962e-08
-3.09906e-08
2.10332e-08
-3.68627e-08
2.30082e-08
-4.31455e-08
2.48102e-08
-4.98005e-08
2.64332e-08
-5.67887e-08
2.78762e-08
-6.40707e-08
2.91408e-08
-7.16076e-08
3.02304e-08
-7.93602e-08
3.11502e-08
-8.72911e-08
3.19063e-08
-9.53635e-08
3.25055e-08
-1.03542e-07
3.2955e-08
-1.11793e-07
3.32618e-08
-1.20084e-07
3.34331e-08
-1.28383e-07
3.34761e-08
-1.36661e-07
3.3397e-08
-1.4489e-07
3.32019e-08
-1.53043e-07
3.28971e-08
-1.61093e-07
3.24876e-08
-1.69016e-07
3.19783e-08
-1.76789e-07
3.13737e-08
-1.84387e-07
3.06779e-08
-1.91791e-07
2.98946e-08
-1.98977e-07
2.90268e-08
-2.05925e-07
2.80775e-08
-2.12616e-07
2.70492e-08
-2.1903e-07
2.59444e-08
-2.25149e-07
2.4765e-08
-2.30953e-07
2.35129e-08
-2.36425e-07
2.21896e-08
-2.41549e-07
2.0797e-08
-2.46306e-07
1.93368e-08
-2.50681e-07
1.78107e-08
-2.54658e-07
1.62204e-08
-2.58222e-07
1.45681e-08
-2.61358e-07
1.28559e-08
-2.64053e-07
1.10865e-08
-2.66294e-07
9.26268e-09
-2.6807e-07
7.38773e-09
-2.69368e-07
5.46558e-09
-2.7018e-07
3.50063e-09
-2.70497e-07
1.49759e-09
-2.70311e-07
-5.38468e-10
-2.69616e-07
-2.60187e-09
-2.68409e-07
-4.68615e-09
-2.66686e-07
-6.78426e-09
-2.64448e-07
-8.88872e-09
-2.61694e-07
-1.09916e-08
-2.58428e-07
-1.30845e-08
-2.54655e-07
-1.51583e-08
-2.50383e-07
-1.72035e-08
-2.45622e-07
-1.92102e-08
-2.40383e-07
-2.11684e-08
-2.34682e-07
-2.30675e-08
-2.28535e-07
-2.48969e-08
-2.21962e-07
-2.66457e-08
-2.14986e-07
-2.83029e-08
-2.07632e-07
-2.98575e-08
-1.99928e-07
-3.12988e-08
-1.91902e-07
-3.2616e-08
-1.83589e-07
-3.37988e-08
-1.75022e-07
-3.48368e-08
-1.66239e-07
-3.57204e-08
-1.57279e-07
-3.64405e-08
-1.48183e-07
-3.69888e-08
-1.38995e-07
-3.73577e-08
-1.29758e-07
-3.75405e-08
-1.20518e-07
-3.75312e-08
-1.11322e-07
-3.7325e-08
-1.02217e-07
-3.69184e-08
-9.32514e-08
-3.63093e-08
-8.44729e-08
-3.54967e-08
-7.5929e-08
-3.44813e-08
-6.76668e-08
-3.32652e-08
-5.97323e-08
-3.18523e-08
-5.21695e-08
-3.02484e-08
-4.50204e-08
-2.84616e-08
-3.8324e-08
-2.65023e-08
-3.2116e-08
-2.43839e-08
-2.64277e-08
-2.21231e-08
-2.12853e-08
-1.97409e-08
-1.6709e-08
-1.72634e-08
-1.27121e-08
-1.4723e-08
-9.2995e-09
-1.21598e-08
-6.46726e-09
-9.62359e-09
-4.20095e-09
-7.17599e-09
-2.47481e-09
-4.89382e-09
-1.25076e-09
-2.87316e-09
-4.77936e-10
-1.23356e-09
-9.11341e-11
-1.21967e-10
2.76105e-10
-2.86526e-10
6.35628e-10
-1.17642e-09
2.23222e-09
-2.6797e-09
4.23124e-09
-4.7994e-09
6.73704e-09
-7.53675e-09
9.58678e-09
-1.08909e-08
1.26193e-08
-1.48537e-08
1.57128e-08
-1.94117e-08
1.87777e-08
-2.45441e-08
2.1748e-08
-3.02241e-08
2.45762e-08
-3.64198e-08
2.72289e-08
-4.30958e-08
2.96841e-08
-5.02132e-08
3.19276e-08
-5.77317e-08
3.39517e-08
-6.56093e-08
3.57539e-08
-7.38035e-08
3.7335e-08
-8.22721e-08
3.86991e-08
-9.09736e-08
3.98516e-08
-9.9867e-08
4.07998e-08
-1.08913e-07
4.15512e-08
-1.18072e-07
4.21143e-08
-1.27308e-07
4.24979e-08
-1.36585e-07
4.27103e-08
-1.45869e-07
4.27599e-08
-1.55127e-07
4.26548e-08
-1.64328e-07
4.24026e-08
-1.73441e-07
4.20105e-08
-1.82438e-07
4.14849e-08
-1.91292e-07
4.08319e-08
-1.99975e-07
4.00572e-08
-2.08463e-07
3.91659e-08
-2.16731e-07
3.81624e-08
-2.24755e-07
3.70507e-08
-2.32512e-07
3.58345e-08
-2.3998e-07
3.45171e-08
-2.47137e-07
3.31015e-08
-2.53962e-07
3.15903e-08
-2.60435e-07
2.99858e-08
-2.66536e-07
2.82905e-08
-2.72246e-07
2.65066e-08
-2.77545e-07
2.46365e-08
-2.82417e-07
2.26822e-08
-2.86843e-07
2.06464e-08
-2.90807e-07
1.8532e-08
-2.94293e-07
1.63419e-08
-2.97286e-07
1.40795e-08
-2.99772e-07
1.17484e-08
-3.01737e-07
9.35322e-09
-3.03171e-07
6.89898e-09
-3.04061e-07
4.39115e-09
-3.04399e-07
1.8357e-09
-3.04177e-07
-7.60701e-10
-3.03388e-07
-3.39063e-09
-3.02028e-07
-6.04595e-09
-3.00095e-07
-8.71784e-09
-2.97587e-07
-1.13969e-08
-2.94505e-07
-1.4073e-08
-2.90854e-07
-1.67355e-08
-2.8664e-07
-1.93729e-08
-2.8187e-07
-2.19733e-08
-2.76556e-07
-2.45242e-08
-2.70711e-07
-2.70129e-08
-2.64353e-07
-2.94263e-08
-2.57499e-07
-3.17507e-08
-2.50172e-07
-3.39726e-08
-2.42397e-07
-3.6078e-08
-2.34201e-07
-3.80532e-08
-2.25615e-07
-3.98847e-08
-2.16672e-07
-4.15589e-08
-2.07409e-07
-4.30627e-08
-1.97862e-07
-4.43832e-08
-1.88074e-07
-4.55084e-08
-1.78088e-07
-4.6427e-08
-1.67948e-07
-4.71285e-08
-1.57702e-07
-4.76035e-08
-1.47399e-07
-4.78436e-08
-1.37089e-07
-4.78413e-08
-1.26823e-07
-4.75909e-08
-1.16653e-07
-4.70881e-08
-1.06632e-07
-4.63304e-08
-9.68122e-08
-4.53168e-08
-8.72452e-08
-4.40483e-08
-7.79825e-08
-4.25279e-08
-6.90739e-08
-4.07608e-08
-6.05675e-08
-3.87548e-08
-5.25087e-08
-3.65204e-08
-4.49398e-08
-3.40711e-08
-3.78995e-08
-3.14242e-08
-3.14217e-08
-2.86009e-08
-2.5535e-08
-2.56276e-08
-2.02618e-08
-2.25366e-08
-1.56174e-08
-1.93674e-08
-1.16092e-08
-1.6168e-08
-8.23579e-09
-1.2997e-08
-5.4863e-09
-9.92548e-09
-3.33971e-09
-7.04041e-09
-1.7649e-09
-4.44797e-09
-7.21227e-10
-2.27722e-09
-1.57425e-10
-6.85767e-10
1.18681e-10
-3.57064e-10
9.92694e-10
-1.44056e-09
3.31572e-09
-3.24704e-09
6.03771e-09
-5.76208e-09
9.25208e-09
-8.9734e-09
1.27981e-08
-1.28665e-08
1.65124e-08
-1.74248e-08
2.02711e-08
-2.26261e-08
2.39789e-08
-2.84437e-08
2.75656e-08
-3.48462e-08
3.09787e-08
-4.17979e-08
3.41807e-08
-4.92597e-08
3.71459e-08
-5.71902e-08
3.9858e-08
-6.55459e-08
4.23075e-08
-7.42824e-08
4.44903e-08
-8.33547e-08
4.64073e-08
-9.27179e-08
4.80622e-08
-1.02327e-07
4.94613e-08
-1.1214e-07
5.06121e-08
-1.22113e-07
5.15239e-08
-1.32204e-07
5.22062e-08
-1.42375e-07
5.2669e-08
-1.52587e-07
5.29221e-08
-1.62803e-07
5.29755e-08
-1.72987e-07
5.28389e-08
-1.83105e-07
5.25211e-08
-1.93126e-07
5.20305e-08
-2.03016e-07
5.13752e-08
-2.12746e-07
5.05625e-08
-2.22288e-07
4.95992e-08
-2.31614e-07
4.84912e-08
-2.40695e-07
4.7244e-08
-2.49507e-07
4.58628e-08
-2.58025e-07
4.43519e-08
-2.66223e-07
4.27155e-08
-2.74079e-07
4.09571e-08
-2.81569e-07
3.90799e-08
-2.8867e-07
3.70873e-08
-2.95362e-07
3.49821e-08
-3.01622e-07
3.27673e-08
-3.07432e-07
3.04458e-08
-3.1277e-07
2.80206e-08
-3.17619e-07
2.54951e-08
-3.21959e-07
2.28726e-08
-3.25774e-07
2.01571e-08
-3.29048e-07
1.73529e-08
-3.31764e-07
1.44649e-08
-3.3391e-07
1.14987e-08
-3.35471e-07
8.46045e-09
-3.36437e-07
5.35698e-09
-3.36797e-07
2.19575e-09
-3.36543e-07
-1.01494e-09
-3.35668e-07
-4.26587e-09
-3.34167e-07
-7.54697e-09
-3.32037e-07
-1.08475e-08
-3.29278e-07
-1.41558e-08
-3.25892e-07
-1.74597e-08
-3.21881e-07
-2.07458e-08
-3.17254e-07
-2.40003e-08
-3.12019e-07
-2.72084e-08
-3.06188e-07
-3.03549e-08
-2.99776e-07
-3.34244e-08
-2.92802e-07
-3.64007e-08
-2.85286e-07
-3.9267e-08
-2.77252e-07
-4.20068e-08
-2.68726e-07
-4.46031e-08
-2.5974e-07
-4.70392e-08
-2.50327e-07
-4.92984e-08
-2.40521e-07
-5.13643e-08
-2.30363e-07
-5.32207e-08
-2.19894e-07
-5.48521e-08
-2.09159e-07
-5.62437e-08
-1.98204e-07
-5.7382e-08
-1.87078e-07
-5.82542e-08
-1.75833e-07
-5.88488e-08
-1.64521e-07
-5.91555e-08
-1.53197e-07
-5.91656e-08
-1.41916e-07
-5.88722e-08
-1.30733e-07
-5.82703e-08
-1.19707e-07
-5.73569e-08
-1.08892e-07
-5.61311e-08
-9.83464e-08
-5.45943e-08
-8.81239e-08
-5.27505e-08
-7.82783e-08
-5.06064e-08
-6.88612e-08
-4.81719e-08
-5.99213e-08
-4.54603e-08
-5.15042e-08
-4.24883e-08
-4.36512e-08
-3.92771e-08
-3.63991e-08
-3.5853e-08
-2.97791e-08
-3.22477e-08
-2.38159e-08
-2.84998e-08
-1.85277e-08
-2.46557e-08
-1.39246e-08
-2.07712e-08
-1.00088e-08
-1.69128e-08
-6.77374e-09
-1.31605e-08
-4.20422e-09
-9.60993e-09
-2.27698e-09
-6.37521e-09
-9.62047e-10
-3.59216e-09
-2.22162e-10
-1.42565e-09
-1.03482e-10
-4.26944e-10
1.41963e-09
-1.70215e-09
4.59096e-09
-3.80606e-09
8.14161e-09
-6.71021e-09
1.21562e-08
-1.03875e-08
1.64754e-08
-1.48128e-08
2.09378e-08
-1.99582e-08
2.54165e-08
-2.5794e-08
2.98147e-08
-3.22867e-08
3.40583e-08
-3.93995e-08
3.80915e-08
-4.70925e-08
4.18737e-08
-5.53229e-08
4.53763e-08
-6.40457e-08
4.85809e-08
-7.32149e-08
5.14767e-08
-8.27834e-08
5.40588e-08
-9.27036e-08
5.63275e-08
-1.02928e-07
5.82866e-08
-1.1341e-07
5.99431e-08
-1.24103e-07
6.13052e-08
-1.34962e-07
6.23832e-08
-1.45944e-07
6.31881e-08
-1.57006e-07
6.3731e-08
-1.68108e-07
6.40235e-08
-1.79209e-07
6.40768e-08
-1.90272e-07
6.39022e-08
-2.01261e-07
6.35098e-08
-2.1214e-07
6.29097e-08
-2.22876e-07
6.21113e-08
-2.33437e-07
6.11231e-08
-2.43791e-07
5.9953e-08
-2.53907e-07
5.86081e-08
-2.63759e-07
5.70952e-08
-2.73316e-07
5.542e-08
-2.82552e-07
5.3588e-08
-2.9144e-07
5.16041e-08
-2.99956e-07
4.94725e-08
-3.08074e-07
4.71976e-08
-3.15769e-07
4.47829e-08
-3.23019e-07
4.22323e-08
-3.29801e-07
3.95494e-08
-3.36093e-07
3.67378e-08
-3.41874e-07
3.38014e-08
-3.47123e-07
3.07442e-08
-3.51821e-07
2.75706e-08
-3.5595e-07
2.42854e-08
-3.59491e-07
2.08939e-08
-3.62428e-07
1.74022e-08
-3.64747e-07
1.38172e-08
-3.66432e-07
1.01463e-08
-3.67473e-07
6.39762e-09
-3.67858e-07
2.58035e-09
-3.67577e-07
-1.29541e-09
-3.66624e-07
-5.21851e-09
-3.64995e-07
-9.17691e-09
-3.62684e-07
-1.31578e-08
-3.59693e-07
-1.71472e-08
-3.56022e-07
-2.11303e-08
-3.51677e-07
-2.50911e-08
-3.46664e-07
-2.90131e-08
-3.40994e-07
-3.28787e-08
-3.34679e-07
-3.66699e-08
-3.27735e-07
-4.03679e-08
-3.20183e-07
-4.39533e-08
-3.12044e-07
-4.74063e-08
-3.03343e-07
-5.07069e-08
-2.94112e-07
-5.38351e-08
-2.8438e-07
-5.67708e-08
-2.74184e-07
-5.9494e-08
-2.63564e-07
-6.19851e-08
-2.52559e-07
-6.42248e-08
-2.41217e-07
-6.61948e-08
-2.29583e-07
-6.78776e-08
-2.17708e-07
-6.92568e-08
-2.05645e-07
-7.03173e-08
-1.93448e-07
-7.10455e-08
-1.81174e-07
-7.14292e-08
-1.68882e-07
-7.14582e-08
-1.56629e-07
-7.11246e-08
-1.44477e-07
-7.04224e-08
-1.32486e-07
-6.93483e-08
-1.20716e-07
-6.79013e-08
-1.09226e-07
-6.60836e-08
-9.80769e-08
-6.39e-08
-8.73242e-08
-6.13591e-08
-7.70231e-08
-5.8473e-08
-6.72257e-08
-5.52577e-08
-5.79804e-08
-5.17335e-08
-4.93317e-08
-4.79259e-08
-4.13191e-08
-4.38657e-08
-3.39765e-08
-3.95903e-08
-2.73318e-08
-3.51445e-08
-2.1406e-08
-3.05815e-08
-1.62129e-08
-2.59643e-08
-1.17586e-08
-2.1367e-08
-8.04175e-09
-1.68774e-08
-5.05325e-09
-1.25984e-08
-2.77799e-09
-8.65047e-09
-1.19641e-09
-5.17375e-09
-2.84598e-10
-2.33747e-09
-3.88083e-10
-4.95308e-10
1.91494e-09
-1.95687e-09
6.05254e-09
-4.35139e-09
1.05361e-08
-7.63549e-09
1.54403e-08
-1.17697e-08
2.06096e-08
-1.67162e-08
2.58843e-08
-2.24381e-08
3.11384e-08
-2.8897e-08
3.62737e-08
-3.60524e-08
4.12137e-08
-4.38619e-08
4.5901e-08
-5.22807e-08
5.02926e-08
-6.12623e-08
5.43578e-08
-7.07582e-08
5.80768e-08
-8.0719e-08
6.14375e-08
-9.1095e-08
6.44348e-08
-1.01836e-07
6.70686e-08
-1.12892e-07
6.9343e-08
-1.24215e-07
7.12654e-08
-1.35755e-07
7.28453e-08
-1.47465e-07
7.40937e-08
-1.593e-07
7.50228e-08
-1.71215e-07
7.56456e-08
-1.83166e-07
7.59747e-08
-1.95112e-07
7.60232e-08
-2.07014e-07
7.58035e-08
-2.18831e-07
7.53275e-08
-2.30528e-07
7.46067e-08
-2.42069e-07
7.36517e-08
-2.53418e-07
7.24725e-08
-2.64543e-07
7.10782e-08
-2.75412e-07
6.94772e-08
-2.85994e-07
6.7677e-08
-2.96259e-07
6.56847e-08
-3.06178e-07
6.35067e-08
-3.15722e-07
6.11484e-08
-3.24865e-07
5.86152e-08
-3.33579e-07
5.59121e-08
-3.4184e-07
5.30437e-08
-3.49622e-07
5.00143e-08
-3.56901e-07
4.68283e-08
-3.63653e-07
4.34902e-08
-3.69857e-07
4.00047e-08
-3.75489e-07
3.63768e-08
-3.8053e-07
3.26116e-08
-3.8496e-07
2.87149e-08
-3.88759e-07
2.46932e-08
-3.91911e-07
2.0554e-08
-3.94399e-07
1.63051e-08
-3.96208e-07
1.19556e-08
-3.97325e-07
7.51502e-09
-3.97739e-07
2.99438e-09
-3.9744e-07
-1.59436e-09
-3.96421e-07
-6.23808e-09
-3.94675e-07
-1.09226e-08
-3.922e-07
-1.56329e-08
-3.88995e-07
-2.03524e-08
-3.85061e-07
-2.50636e-08
-3.80405e-07
-2.97479e-08
-3.75032e-07
-3.43857e-08
-3.68954e-07
-3.89566e-08
-3.62185e-07
-4.34391e-08
-3.54741e-07
-4.78113e-08
-3.46644e-07
-5.20504e-08
-3.37917e-07
-5.61332e-08
-3.28588e-07
-6.00363e-08
-3.18687e-07
-6.37361e-08
-3.08249e-07
-6.72091e-08
-2.97311e-07
-7.04318e-08
-2.85915e-07
-7.33811e-08
-2.74105e-07
-7.60347e-08
-2.61929e-07
-7.83709e-08
-2.49437e-07
-8.03694e-08
-2.36683e-07
-8.2011e-08
-2.23722e-07
-8.32781e-08
-2.10613e-07
-8.41547e-08
-1.97415e-07
-8.46266e-08
-1.84191e-07
-8.46823e-08
-1.71003e-07
-8.43125e-08
-1.57915e-07
-8.35104e-08
-1.44991e-07
-8.22722e-08
-1.32296e-07
-8.05973e-08
-1.19891e-07
-7.8488e-08
-1.0784e-07
-7.59506e-08
-9.62041e-08
-7.29955e-08
-8.50401e-08
-6.9637e-08
-7.44038e-08
-6.5894e-08
-6.43468e-08
-6.17905e-08
-5.49166e-08
-5.73561e-08
-4.61556e-08
-5.26266e-08
-3.81011e-08
-4.76449e-08
-3.07838e-08
-4.24617e-08
-2.42286e-08
-3.71368e-08
-1.8453e-08
-3.17399e-08
-1.34677e-08
-2.63523e-08
-9.27668e-09
-2.10685e-08
-5.87743e-09
-1.59977e-08
-3.26264e-09
-1.12653e-08
-1.42239e-09
-7.01401e-09
-3.44705e-10
-3.41515e-09
-7.32793e-10
-5.60827e-10
2.47576e-09
-2.20347e-09
7.69519e-09
-4.87986e-09
1.32125e-08
-8.53364e-09
1.90941e-08
-1.31127e-08
2.51886e-08
-1.85682e-08
3.13398e-08
-2.4854e-08
3.74241e-08
-3.19228e-08
4.33425e-08
-3.97274e-08
4.90183e-08
-4.82191e-08
5.43926e-08
-5.73481e-08
5.94216e-08
-6.70636e-08
6.40733e-08
-7.73136e-08
6.83268e-08
-8.80455e-08
7.21695e-08
-9.92067e-08
7.5596e-08
-1.10745e-07
7.86064e-08
-1.22607e-07
8.12052e-08
-1.34742e-07
8.34004e-08
-1.47099e-07
8.52026e-08
-1.59629e-07
8.6624e-08
-1.72285e-07
8.76781e-08
-1.85018e-07
8.8379e-08
-1.97784e-07
8.87412e-08
-2.10541e-07
8.87793e-08
-2.23244e-07
8.85071e-08
-2.35855e-07
8.7938e-08
-2.48333e-07
8.70851e-08
-2.60642e-07
8.59606e-08
-2.72745e-07
8.45754e-08
-2.84607e-07
8.29401e-08
-2.96194e-07
8.10642e-08
-3.07473e-07
7.89566e-08
-3.18414e-07
7.66252e-08
-3.28984e-07
7.40773e-08
-3.39155e-07
7.13193e-08
-3.48898e-07
6.83577e-08
-3.58184e-07
6.5198e-08
-3.66986e-07
6.18458e-08
-3.75278e-07
5.83061e-08
-3.83034e-07
5.45842e-08
-3.90229e-07
5.06855e-08
-3.9684e-07
4.66155e-08
-4.02843e-07
4.23798e-08
-4.08216e-07
3.79848e-08
-4.12939e-07
3.34374e-08
-4.16991e-07
2.87453e-08
-4.20354e-07
2.39171e-08
-4.23011e-07
1.8962e-08
-4.24946e-07
1.38905e-08
-4.26144e-07
8.71386e-09
-4.26595e-07
3.44497e-09
-4.26287e-07
-1.90227e-09
-4.25213e-07
-7.31268e-09
-4.23365e-07
-1.27699e-08
-4.20742e-07
-1.82563e-08
-4.17341e-07
-2.37528e-08
-4.13166e-07
-2.92391e-08
-4.0822e-07
-3.46935e-08