/*--------------------------------*- C++ -*----------------------------------*\
| =========                 |                                                 |
| \\      /  F ield         | OpenFOAM: The Open Source CFD Toolbox           |
|  \\    /   O peration     | Version:  2512                                  |
|   \\  /    A nd           | Website:  www.openfoam.com                      |
|    \\/     M anipulation  |                                                 |
\*---------------------------------------------------------------------------*/
FoamFile
{
    version     2.0;
    format      ascii;
    arch        "LSB;label=32;scalar=64";
    class       volVectorField;
    location    "0.2";
    object      U;
}
// * * * * * * * * * * * * * * * * * * * * * * * * * * * * * * * * * * * * * //

dimensions      [0 1 -1 0 0 0 0];

internalField   nonuniform List<vector> 
10000
(
(2.86803e-06 -3.90668e-06 0)
(1.4138e-05 -1.03074e-05 0)
(3.30633e-05 -1.22052e-05 0)
(4.95603e-05 -9.17254e-06 0)
(5.77508e-05 -4.85688e-06 0)
(5.55341e-05 -5.55422e-07 0)
(4.29205e-05 3.2281e-06 0)
(2.08165e-05 6.61978e-06 0)
(-9.89256e-06 9.40289e-06 0)
(-4.84778e-05 1.18463e-05 0)
(-9.40458e-05 1.42148e-05 0)
(-0.000145916 1.61673e-05 0)
(-0.000203341 1.7865e-05 0)
(-0.000265461 1.93727e-05 0)
(-0.000331917 2.05002e-05 0)
(-0.000401993 2.14519e-05 0)
(-0.000475018 2.23353e-05 0)
(-0.000550793 2.29993e-05 0)
(-0.000628715 2.3521e-05 0)
(-0.000708204 2.39176e-05 0)
(-0.000789041 2.41221e-05 0)
(-0.000870774 2.42114e-05 0)
(-0.000952947 2.43094e-05 0)
(-0.0010353 2.43664e-05 0)
(-0.00111755 2.43084e-05 0)
(-0.00119935 2.41462e-05 0)
(-0.00128041 2.38975e-05 0)
(-0.00136052 2.35649e-05 0)
(-0.00143944 2.31326e-05 0)
(-0.00151685 2.26042e-05 0)
(-0.00159255 2.20465e-05 0)
(-0.0016664 2.14586e-05 0)
(-0.00173821 2.07703e-05 0)
(-0.00180776 2.00036e-05 0)
(-0.00187491 1.92388e-05 0)
(-0.00193947 1.8492e-05 0)
(-0.00200132 1.7722e-05 0)
(-0.00206032 1.69021e-05 0)
(-0.00211631 1.60246e-05 0)
(-0.00216913 1.50836e-05 0)
(-0.00221866 1.4092e-05 0)
(-0.00226477 1.30652e-05 0)
(-0.00230728 1.20318e-05 0)
(-0.00234608 1.10304e-05 0)
(-0.00238104 1.00069e-05 0)
(-0.00241198 8.86271e-06 0)
(-0.00243874 7.60157e-06 0)
(-0.00246112 6.28069e-06 0)
(-0.00247896 4.94105e-06 0)
(-0.00249217 3.61295e-06 0)
(-0.00250064 2.26896e-06 0)
(-0.00250421 8.52662e-07 0)
(-0.00250278 -6.3061e-07 0)
(-0.00249625 -2.15821e-06 0)
(-0.0024845 -3.74092e-06 0)
(-0.00246745 -5.36247e-06 0)
(-0.00244508 -6.97742e-06 0)
(-0.00241737 -8.57393e-06 0)
(-0.00238431 -1.01593e-05 0)
(-0.00234601 -1.17282e-05 0)
(-0.00230253 -1.32849e-05 0)
(-0.00225394 -1.48344e-05 0)
(-0.00220034 -1.63481e-05 0)
(-0.00214191 -1.77898e-05 0)
(-0.00207885 -1.91577e-05 0)
(-0.00201137 -2.046e-05 0)
(-0.00193972 -2.16838e-05 0)
(-0.00186421 -2.2816e-05 0)
(-0.0017851 -2.38588e-05 0)
(-0.00170273 -2.48076e-05 0)
(-0.00161744 -2.56474e-05 0)
(-0.00152964 -2.63744e-05 0)
(-0.00143971 -2.69862e-05 0)
(-0.00134811 -2.74572e-05 0)
(-0.0012553 -2.77577e-05 0)
(-0.00116177 -2.78915e-05 0)
(-0.00106805 -2.78823e-05 0)
(-0.000974647 -2.77261e-05 0)
(-0.000882128 -2.7388e-05 0)
(-0.000791067 -2.68421e-05 0)
(-0.000702054 -2.6094e-05 0)
(-0.000615665 -2.51677e-05 0)
(-0.000532447 -2.40771e-05 0)
(-0.000452928 -2.28236e-05 0)
(-0.000377622 -2.14219e-05 0)
(-0.000307033 -1.98889e-05 0)
(-0.00024167 -1.82063e-05 0)
(-0.000182048 -1.63447e-05 0)
(-0.000128664 -1.43024e-05 0)
(-8.2008e-05 -1.20945e-05 0)
(-4.25344e-05 -9.75279e-06 0)
(-1.06134e-05 -7.30145e-06 0)
(1.34643e-05 -4.73838e-06 0)
(2.9546e-05 -2.09807e-06 0)
(3.77175e-05 5.21745e-07 0)
(3.83623e-05 2.95101e-06 0)
(3.23606e-05 4.88518e-06 0)
(2.14665e-05 5.8225e-06 0)
(9.5006e-06 4.94068e-06 0)
(1.80872e-06 1.82374e-06 0)
(1.91556e-06 -1.1731e-05 0)
(1.50601e-05 -2.66848e-05 0)
(3.27803e-05 -2.99929e-05 0)
(4.43642e-05 -1.93855e-05 0)
(4.00768e-05 -1.76613e-06 0)
(1.46241e-05 1.68843e-05 0)
(-3.30505e-05 3.56245e-05 0)
(-0.000102778 5.29104e-05 0)
(-0.000193849 6.87402e-05 0)
(-0.00030455 8.31886e-05 0)
(-0.000433719 9.60792e-05 0)
(-0.000579559 0.000107671 0)
(-0.000740136 0.000117984 0)
(-0.000914253 0.000126914 0)
(-0.00109997 0.000134658 0)
(-0.00129572 0.000141359 0)
(-0.00150044 0.000146987 0)
(-0.00171243 0.00015167 0)
(-0.00193046 0.000155511 0)
(-0.00215349 0.00015851 0)
(-0.00238014 0.000160598 0)
(-0.0026094 0.000161922 0)
(-0.00284041 0.000162612 0)
(-0.00307207 0.000162685 0)
(-0.0033035 0.000162154 0)
(-0.00353392 0.000161098 0)
(-0.00376252 0.000159511 0)
(-0.00398855 0.000157365 0)
(-0.00421135 0.000154711 0)
(-0.00443023 0.000151622 0)
(-0.00464454 0.000148146 0)
(-0.00485372 0.00014431 0)
(-0.0050572 0.00014008 0)
(-0.00525443 0.000135461 0)
(-0.00544491 0.000130516 0)
(-0.00562812 0.000125275 0)
(-0.00580361 0.000119743 0)
(-0.00597092 0.000113929 0)
(-0.00612955 0.000107844 0)
(-0.00627903 0.000101451 0)
(-0.00641896 9.47076e-05 0)
(-0.0065489 8.76579e-05 0)
(-0.0066684 8.03613e-05 0)
(-0.006777 7.28216e-05 0)
(-0.00687425 6.50101e-05 0)
(-0.00695978 5.68522e-05 0)
(-0.00703314 4.83099e-05 0)
(-0.00709388 3.94467e-05 0)
(-0.00714169 3.03263e-05 0)
(-0.00717618 2.09678e-05 0)
(-0.00719701 1.13955e-05 0)
(-0.0072039 1.62376e-06 0)
(-0.00719654 -8.3632e-06 0)
(-0.00717466 -1.85732e-05 0)
(-0.00713816 -2.89712e-05 0)
(-0.00708697 -3.94815e-05 0)
(-0.00702092 -5.00192e-05 0)
(-0.00693997 -6.05175e-05 0)
(-0.00684428 -7.09297e-05 0)
(-0.00673398 -8.12251e-05 0)
(-0.00660921 -9.13792e-05 0)
(-0.00647032 -0.000101338 0)
(-0.0063177 -0.000111014 0)
(-0.00615173 -0.000120329 0)
(-0.00597288 -0.000129237 0)
(-0.00578188 -0.000137689 0)
(-0.00557944 -0.000145618 0)
(-0.00536623 -0.000152968 0)
(-0.00514306 -0.000159705 0)
(-0.00491093 -0.000165781 0)
(-0.00467087 -0.000171129 0)
(-0.0044239 -0.000175688 0)
(-0.00417113 -0.00017941 0)
(-0.00391383 -0.000182238 0)
(-0.00365333 -0.00018411 0)
(-0.00339092 -0.000184992 0)
(-0.00312799 -0.000184868 0)
(-0.00286604 -0.000183695 0)
(-0.00260656 -0.000181409 0)
(-0.00235101 -0.000177974 0)
(-0.00210088 -0.000173402 0)
(-0.00185772 -0.000167734 0)
(-0.00162312 -0.000161003 0)
(-0.00139858 -0.000153231 0)
(-0.00118553 -0.000144439 0)
(-0.000985361 -0.000134649 0)
(-0.000799505 -0.000123863 0)
(-0.000629325 -0.000112077 0)
(-0.000476083 -9.93313e-05 0)
(-0.00034094 -8.57092e-05 0)
(-0.000224935 -7.13204e-05 0)
(-0.000128901 -5.63315e-05 0)
(-5.33619e-05 -4.0967e-05 0)
(1.59987e-06 -2.55458e-05 0)
(3.64662e-05 -1.06096e-05 0)
(5.24492e-05 3.00648e-06 0)
(5.18375e-05 1.40446e-05 0)
(3.8508e-05 2.05076e-05 0)
(1.95726e-05 1.96507e-05 0)
(4.85499e-06 9.43512e-06 0)
(-1.04962e-06 -1.61897e-05 0)
(2.82238e-06 -3.64558e-05 0)
(2.37551e-06 -3.70863e-05 0)
(-9.92527e-06 -1.19438e-05 0)
(-4.37497e-05 2.67977e-05 0)
(-0.000105262 7.1357e-05 0)
(-0.000196966 0.00011658 0)
(-0.00031983 0.000160549 0)
(-0.000472577 0.000202076 0)
(-0.000654643 0.000240319 0)
(-0.00086376 0.000275325 0)
(-0.00109772 0.000307024 0)
(-0.00135474 0.000335207 0)
(-0.00163206 0.00036023 0)
(-0.00192747 0.000382184 0)
(-0.00223895 0.000401033 0)
(-0.00256401 0.000417115 0)
(-0.00290074 0.000430651 0)
(-0.00324723 0.000441587 0)
(-0.00360141 0.000450226 0)
(-0.00396159 0.000456642 0)
(-0.00432609 0.000460848 0)
(-0.00469331 0.000463116 0)
(-0.00506175 0.000463562 0)
(-0.00543008 0.000462264 0)
(-0.0057969 0.000459398 0)
(-0.00616091 0.000455023 0)
(-0.00652102 0.000449161 0)
(-0.00687615 0.000441902 0)
(-0.00722515 0.000433366 0)
(-0.00756701 0.000423655 0)
(-0.00790084 0.000412823 0)
(-0.00822566 0.000400882 0)
(-0.00854055 0.000387871 0)
(-0.00884465 0.000373843 0)
(-0.00913716 0.000358821 0)
(-0.00941728 0.000342847 0)
(-0.00968422 0.000325992 0)
(-0.00993714 0.000308258 0)
(-0.0101753 0.000289627 0)
(-0.010398 0.000270081 0)
(-0.0106044 0.000249612 0)
(-0.0107939 0.000228291 0)
(-0.0109657 0.000206157 0)
(-0.0111191 0.000183155 0)
(-0.0112535 0.000159282 0)
(-0.0113682 0.000134568 0)
(-0.0114626 0.000109023 0)
(-0.0115362 8.27181e-05 0)
(-0.0115884 5.5743e-05 0)
(-0.0116187 2.81356e-05 0)
(-0.0116266 -3.97309e-08 0)
(-0.0116118 -2.86911e-05 0)
(-0.011574 -5.77815e-05 0)
(-0.0115129 -8.7257e-05 0)
(-0.0114285 -0.000116959 0)
(-0.0113207 -0.000146705 0)
(-0.0111894 -0.000176363 0)
(-0.0110348 -0.000205803 0)
(-0.0108572 -0.000234889 0)
(-0.0106569 -0.000263498 0)
(-0.0104343 -0.000291485 0)
(-0.0101901 -0.000318663 0)
(-0.00992497 -0.000344852 0)
(-0.00963971 -0.000369905 0)
(-0.0093353 -0.000393669 0)
(-0.00901284 -0.000415969 0)
(-0.0086735 -0.000436647 0)
(-0.0083186 -0.000455565 0)
(-0.00794964 -0.000472571 0)
(-0.00756823 -0.0004875 0)
(-0.00717606 -0.000500198 0)
(-0.00677489 -0.000510525 0)
(-0.00636664 -0.000518337 0)
(-0.00595334 -0.000523501 0)
(-0.00553709 -0.000525916 0)
(-0.00512006 -0.000525499 0)
(-0.00470452 -0.000522149 0)
(-0.00429273 -0.000515764 0)
(-0.00388698 -0.000506283 0)
(-0.00348958 -0.000493712 0)
(-0.00310294 -0.000478096 0)
(-0.00272943 -0.000459486 0)
(-0.00237141 -0.000437926 0)
(-0.00203113 -0.000413469 0)
(-0.00171081 -0.00038618 0)
(-0.00141261 -0.000356136 0)
(-0.00113858 -0.000323442 0)
(-0.000890575 -0.000288274 0)
(-0.000670276 -0.000250882 0)
(-0.000479095 -0.000211616 0)
(-0.000318094 -0.000170971 0)
(-0.000187863 -0.000129615 0)
(-8.83857e-05 -8.85002e-05 0)
(-1.88558e-05 -4.9011e-05 0)
(2.25472e-05 -1.31177e-05 0)
(3.90087e-05 1.63493e-05 0)
(3.55827e-05 3.53491e-05 0)
(2.05471e-05 3.85806e-05 0)
(5.71859e-06 2.12681e-05 0)
(-2.06477e-06 -1.49082e-05 0)
(-8.4054e-06 -3.00883e-05 0)
(-2.99151e-05 -1.93864e-05 0)
(-7.26698e-05 2.63419e-05 0)
(-0.00014342 9.34602e-05 0)
(-0.000248322 0.000170142 0)
(-0.000390349 0.000249757 0)
(-0.000569837 0.000328517 0)
(-0.000787411 0.000403714 0)
(-0.00104108 0.000474239 0)
(-0.00132889 0.000539444 0)
(-0.00164883 0.000598626 0)
(-0.00199778 0.000652006 0)
(-0.00237323 0.000699593 0)
(-0.00277243 0.000741353 0)
(-0.00319235 0.000777653 0)
(-0.0036303 0.000808707 0)
(-0.00408362 0.000834617 0)
(-0.00454974 0.000855855 0)
(-0.00502623 0.000872601 0)
(-0.00551074 0.000885067 0)
(-0.00600101 0.000893531 0)
(-0.006495 0.000898226 0)
(-0.00699071 0.000899325 0)
(-0.00748621 0.000897101 0)
(-0.00797973 0.000891797 0)
(-0.00846966 0.000883513 0)
(-0.00895438 0.000872367 0)
(-0.00943235 0.000858575 0)
(-0.00990214 0.000842281 0)
(-0.0103624 0.000823577 0)
(-0.0108118 0.000802596 0)
(-0.0112491 0.000779462 0)
(-0.011673 0.000754241 0)
(-0.0120823 0.000726983 0)
(-0.0124759 0.00069773 0)
(-0.0128528 0.00066654 0)
(-0.0132116 0.000633511 0)
(-0.0135515 0.000598684 0)
(-0.0138713 0.000562035 0)
(-0.0141701 0.000523602 0)
(-0.0144469 0.000483434 0)
(-0.0147006 0.000441541 0)
(-0.0149302 0.000397954 0)
(-0.0151349 0.000352696 0)
(-0.0153137 0.000305792 0)
(-0.015466 0.000257336 0)
(-0.0155908 0.000207417 0)
(-0.0156875 0.000156077 0)
(-0.0157553 0.00010342 0)
(-0.0157935 4.96163e-05 0)
(-0.0158017 -5.19837e-06 0)
(-0.0157794 -6.09062e-05 0)
(-0.0157262 -0.000117347 0)
(-0.0156419 -0.000174338 0)
(-0.0155263 -0.000231666 0)
(-0.0153794 -0.000289062 0)
(-0.0152011 -0.000346247 0)
(-0.0149918 -0.000402991 0)
(-0.0147517 -0.000459056 0)
(-0.0144814 -0.00051415 0)
(-0.0141814 -0.000567961 0)
(-0.0138527 -0.000620194 0)
(-0.0134961 -0.000670551 0)
(-0.0131127 -0.000718721 0)
(-0.0127038 -0.000764388 0)
(-0.012271 -0.000807241 0)
(-0.0118157 -0.000846973 0)
(-0.0113397 -0.000883287 0)
(-0.0108451 -0.000915896 0)
(-0.0103339 -0.000944511 0)
(-0.00980843 -0.000968836 0)
(-0.00927098 -0.000988585 0)
(-0.00872409 -0.00100351 0)
(-0.00817048 -0.00101338 0)
(-0.0076129 -0.00101802 0)
(-0.00705416 -0.00101724 0)
(-0.00649724 -0.00101087 0)
(-0.00594515 -0.000998758 0)
(-0.00540091 -0.000980841 0)
(-0.00486755 -0.000957096 0)
(-0.0043482 -0.000927545 0)
(-0.00384598 -0.000892255 0)
(-0.00336392 -0.000851314 0)
(-0.00290498 -0.000804827 0)
(-0.00247204 -0.000752947 0)
(-0.00206789 -0.000695887 0)
(-0.00169514 -0.00063394 0)
(-0.00135613 -0.000567513 0)
(-0.00105288 -0.000497133 0)
(-0.000787096 -0.000423493 0)
(-0.000560004 -0.000347551 0)
(-0.00037225 -0.000270609 0)
(-0.000223742 -0.000194433 0)
(-0.000113437 -0.000121439 0)
(-3.91367e-05 -5.4913e-05 0)
(2.83586e-06 6.33277e-07 0)
(1.79729e-05 3.90342e-05 0)
(1.46901e-05 5.23e-05 0)
(4.92471e-06 3.22146e-05 0)
(-2.96322e-06 -8.1635e-06 0)
(-1.9015e-05 -6.33244e-06 0)
(-6.40314e-05 2.62503e-05 0)
(-0.000139597 0.000101073 0)
(-0.000251352 0.000202952 0)
(-0.000404047 0.00031835 0)
(-0.000599496 0.000438752 0)
(-0.000839463 0.00055831 0)
(-0.00112284 0.000673648 0)
(-0.00144857 0.00078281 0)
(-0.00181464 0.000884086 0)
(-0.0022181 0.000976975 0)
(-0.00265618 0.00106107 0)
(-0.00312577 0.00113621 0)
(-0.00362356 0.00120265 0)
(-0.00414634 0.00126051 0)
(-0.00469086 0.00131013 0)
(-0.00525392 0.0013518 0)
(-0.00583245 0.0013859 0)
(-0.00642356 0.00141283 0)
(-0.00702441 0.00143298 0)
(-0.00763229 0.00144672 0)
(-0.00824472 0.00145441 0)
(-0.00885921 0.0014564 0)
(-0.00947341 0.00145302 0)
(-0.0100852 0.00144457 0)
(-0.0106925 0.0014313 0)
(-0.0112933 0.00141346 0)
(-0.0118857 0.00139133 0)
(-0.012468 0.00136509 0)
(-0.0130384 0.00133491 0)
(-0.0135953 0.00130097 0)
(-0.014137 0.00126345 0)
(-0.0146621 0.00122249 0)
(-0.015169 0.00117816 0)
(-0.0156564 0.00113058 0)
(-0.0161228 0.00107984 0)
(-0.0165668 0.00102602 0)
(-0.0169871 0.000969156 0)
(-0.0173824 0.000909293 0)
(-0.0177514 0.000846491 0)
(-0.0180929 0.00078087 0)
(-0.0184056 0.00071248 0)
(-0.0186884 0.000641326 0)
(-0.0189402 0.000567479 0)
(-0.0191598 0.000491045 0)
(-0.0193463 0.000412126 0)
(-0.0194988 0.000330869 0)
(-0.0196163 0.000247435 0)
(-0.0196981 0.000161984 0)
(-0.0197433 7.47272e-05 0)
(-0.0197512 -1.40889e-05 0)
(-0.0197215 -0.000104245 0)
(-0.0196536 -0.000195505 0)
(-0.0195473 -0.000287542 0)
(-0.0194025 -0.000379979 0)
(-0.019219 -0.000472448 0)
(-0.0189969 -0.000564576 0)
(-0.0187366 -0.000655958 0)
(-0.0184386 -0.00074617 0)
(-0.0181033 -0.00083477 0)
(-0.0177317 -0.000921286 0)
(-0.0173246 -0.00100523 0)
(-0.0168834 -0.00108614 0)
(-0.0164093 -0.00116353 0)
(-0.015904 -0.00123689 0)
(-0.0153692 -0.00130571 0)
(-0.0148069 -0.0013695 0)
(-0.0142193 -0.0014278 0)
(-0.0136087 -0.00148013 0)
(-0.0129779 -0.00152604 0)
(-0.0123295 -0.00156506 0)
(-0.0116663 -0.00159675 0)
(-0.0109916 -0.00162074 0)
(-0.0103084 -0.00163666 0)
(-0.00962032 -0.0016442 0)
(-0.00893064 -0.0016431 0)
(-0.00824298 -0.0016331 0)
(-0.00756097 -0.00161401 0)
(-0.00688831 -0.00158572 0)
(-0.0062287 -0.00154818 0)
(-0.00558589 -0.00150141 0)
(-0.00496362 -0.0014455 0)
(-0.00436552 -0.00138059 0)
(-0.00379514 -0.00130687 0)
(-0.00325592 -0.00122463 0)
(-0.00275116 -0.00113429 0)
(-0.00228393 -0.00103639 0)
(-0.00185695 -0.000931596 0)
(-0.00147254 -0.000820821 0)
(-0.00113263 -0.000705225 0)
(-0.000838598 -0.000586339 0)
(-0.00059117 -0.000466195 0)
(-0.000390219 -0.000347461 0)
(-0.000234606 -0.000233636 0)
(-0.000121992 -0.000129357 0)
(-4.85862e-05 -4.0767e-05 0)
(-8.90064e-06 2.39338e-05 0)
(4.85787e-06 5.43198e-05 0)
(3.26238e-06 3.87651e-05 0)
(-4.25661e-06 4.0965e-06 0)
(-3.13015e-05 3.48563e-05 0)
(-0.000100045 0.000100828 0)
(-0.000210608 0.000213791 0)
(-0.00036533 0.000357777 0)
(-0.000567643 0.000518675 0)
(-0.000819584 0.000685522 0)
(-0.00112094 0.000851909 0)
(-0.00147149 0.00101315 0)
(-0.00186949 0.00116604 0)
(-0.00231264 0.00130885 0)
(-0.00279814 0.00144036 0)
(-0.00332266 0.0015598 0)
(-0.00388281 0.001667 0)
(-0.00447512 0.00176198 0)
(-0.00509583 0.00184497 0)
(-0.00574138 0.00191628 0)
(-0.00640824 0.00197638 0)
(-0.00709284 0.00202566 0)
(-0.00779187 0.00206467 0)
(-0.00850209 0.00209391 0)
(-0.00922036 0.00211386 0)
(-0.00994379 0.00212506 0)
(-0.0106695 0.00212801 0)
(-0.0113948 0.00212314 0)
(-0.0121171 0.00211085 0)
(-0.0128341 0.00209154 0)
(-0.0135433 0.00206558 0)
(-0.0142425 0.0020333 0)
(-0.0149298 0.00199498 0)
(-0.0156029 0.0019509 0)
(-0.0162599 0.0019013 0)
(-0.016899 0.00184639 0)
(-0.0175183 0.00178634 0)
(-0.018116 0.00172131 0)
(-0.0186905 0.00165146 0)
(-0.0192401 0.00157696 0)
(-0.0197631 0.0014979 0)
(-0.020258 0.00141434 0)
(-0.0207232 0.00132637 0)
(-0.0211572 0.0012341 0)
(-0.0215585 0.00113763 0)
(-0.0219258 0.0010371 0)
(-0.0222577 0.000932574 0)
(-0.0225529 0.00082418 0)
(-0.02281 0.000712079 0)
(-0.023028 0.000596432 0)
(-0.0232058 0.000477408 0)
(-0.0233423 0.000355259 0)
(-0.0234366 0.000230293 0)
(-0.0234878 0.000102811 0)
(-0.0234952 -2.68836e-05 0)
(-0.0234582 -0.000158443 0)
(-0.0233764 -0.000291467 0)
(-0.0232494 -0.000425503 0)
(-0.0230771 -0.000560046 0)
(-0.0228594 -0.000694565 0)
(-0.0225965 -0.000828519 0)
(-0.0222887 -0.000961339 0)
(-0.0219367 -0.0010924 0)
(-0.021541 -0.00122105 0)
(-0.0211027 -0.00134663 0)
(-0.020623 -0.00146847 0)
(-0.0201032 -0.00158587 0)
(-0.019545 -0.00169813 0)
(-0.0189502 -0.00180452 0)
(-0.018321 -0.00190434 0)
(-0.0176596 -0.00199686 0)
(-0.0169685 -0.0020814 0)
(-0.0162506 -0.00215729 0)
(-0.0155089 -0.00222386 0)
(-0.0147466 -0.00228047 0)
(-0.013967 -0.00232649 0)
(-0.0131736 -0.00236138 0)
(-0.0123704 -0.00238465 0)
(-0.0115611 -0.00239585 0)
(-0.0107498 -0.00239458 0)
(-0.00994054 -0.00238052 0)
(-0.0091376 -0.0023534 0)
(-0.00834522 -0.00231308 0)
(-0.00756769 -0.0022595 0)
(-0.00680931 -0.00219269 0)
(-0.00607435 -0.00211275 0)
(-0.00536698 -0.00201988 0)
(-0.00469125 -0.00191444 0)
(-0.00405108 -0.00179689 0)
(-0.00345021 -0.00166789 0)
(-0.00289207 -0.00152824 0)
(-0.00237971 -0.00137898 0)
(-0.00191572 -0.00122146 0)
(-0.00150223 -0.00105739 0)
(-0.0011408 -0.000888952 0)
(-0.000832244 -0.000718961 0)
(-0.0005765 -0.000551018 0)
(-0.000372461 -0.000389722 0)
(-0.000217855 -0.000240994 0)
(-0.000109079 -0.000112523 0)
(-4.10252e-05 -1.42738e-05 0)
(-7.01884e-06 4.12653e-05 0)
(1.24078e-06 3.94471e-05 0)
(-5.97516e-06 2.24666e-05 0)
(-4.42087e-05 9.47719e-05 0)
(-0.000138107 0.000205507 0)
(-0.000284186 0.000365729 0)
(-0.000482659 0.000560226 0)
(-0.000736134 0.00077238 0)
(-0.00104492 0.000991911 0)
(-0.0014089 0.00121035 0)
(-0.00182684 0.00142227 0)
(-0.0022968 0.00162386 0)
(-0.00281622 0.00181262 0)
(-0.003382 0.00198691 0)
(-0.0039907 0.00214575 0)
(-0.00463855 0.00228866 0)
(-0.00532165 0.00241559 0)
(-0.00603614 0.00252672 0)
(-0.00677806 0.00262236 0)
(-0.00754347 0.00270307 0)
(-0.00832857 0.0027694 0)
(-0.00912963 0.00282196 0)
(-0.00994305 0.0028614 0)
(-0.0107654 0.00288833 0)
(-0.0115932 0.00290342 0)
(-0.0124235 0.00290732 0)
(-0.0132531 0.00290057 0)
(-0.0140792 0.00288372 0)
(-0.0148989 0.00285732 0)
(-0.0157097 0.00282185 0)
(-0.0165089 0.00277769 0)
(-0.0172943 0.00272524 0)
(-0.0180634 0.0026649 0)
(-0.0188141 0.002597 0)
(-0.019544 0.00252179 0)
(-0.0202513 0.00243949 0)
(-0.0209337 0.00235034 0)
(-0.0215895 0.00225456 0)
(-0.0222165 0.00215234 0)
(-0.0228131 0.00204381 0)
(-0.0233774 0.00192911 0)
(-0.0239076 0.00180841 0)
(-0.0244021 0.00168184 0)
(-0.0248591 0.00154953 0)
(-0.0252771 0.00141161 0)
(-0.0256545 0.00126828 0)
(-0.0259898 0.00111976 0)
(-0.0262817 0.000966225 0)
(-0.0265288 0.000807922 0)
(-0.0267299 0.000645128 0)
(-0.0268839 0.000478174 0)
(-0.0269897 0.000307448 0)
(-0.0270463 0.00013338 0)
(-0.0270529 -4.3594e-05 0)
(-0.0270091 -0.000223001 0)
(-0.0269141 -0.000404287 0)
(-0.0267676 -0.000586823 0)
(-0.0265695 -0.000769947 0)
(-0.0263199 -0.000952972 0)
(-0.0260187 -0.00113517 0)
(-0.0256667 -0.00131574 0)
(-0.0252643 -0.00149385 0)
(-0.0248123 -0.00166863 0)
(-0.0243119 -0.00183919 0)
(-0.0237645 -0.00200464 0)
(-0.0231717 -0.00216403 0)
(-0.0225352 -0.00231641 0)
(-0.0218572 -0.00246081 0)
(-0.0211401 -0.00259627 0)
(-0.0203864 -0.00272184 0)
(-0.0195991 -0.0028366 0)
(-0.0187813 -0.00293963 0)
(-0.0179364 -0.00303003 0)
(-0.017068 -0.00310694 0)
(-0.0161798 -0.00316955 0)
(-0.0152759 -0.00321714 0)
(-0.0143607 -0.00324905 0)
(-0.0134383 -0.00326468 0)
(-0.0125133 -0.00326352 0)
(-0.0115903 -0.00324513 0)
(-0.0106741 -0.00320918 0)
(-0.00976937 -0.00315549 0)
(-0.00888099 -0.00308398 0)
(-0.0080137 -0.0029947 0)
(-0.00717225 -0.00288781 0)
(-0.00636129 -0.00276362 0)
(-0.00558532 -0.00262264 0)
(-0.00484868 -0.00246555 0)
(-0.00415547 -0.00229325 0)
(-0.00350945 -0.00210691 0)
(-0.00291395 -0.00190795 0)
(-0.00237183 -0.00169823 0)
(-0.00188543 -0.00148003 0)
(-0.0014565 -0.00125626 0)
(-0.00108601 -0.00103053 0)
(-0.000774035 -0.000807345 0)
(-0.000519624 -0.000592368 0)
(-0.000320795 -0.000392737 0)
(-0.000174357 -0.000217521 0)
(-7.57534e-05 -7.81301e-05 0)
(-1.97837e-05 1.13715e-05 0)
(-8.46392e-07 3.36573e-05 0)
(-7.77434e-06 4.76101e-05 0)
(-5.78746e-05 0.000174037 0)
(-0.000176913 0.000340375 0)
(-0.000358616 0.000558082 0)
(-0.00060145 0.000809997 0)
(-0.000906085 0.00108082 0)
(-0.00127212 0.00135827 0)
(-0.00169865 0.00163379 0)
(-0.00218382 0.00190101 0)
(-0.00272516 0.00215548 0)
(-0.00331975 0.00239407 0)
(-0.00396431 0.00261475 0)
(-0.00465498 0.00281629 0)
(-0.00538778 0.00299803 0)
(-0.00615863 0.00315972 0)
(-0.00696329 0.00330146 0)
(-0.00779747 0.00342371 0)
(-0.00865698 0.00352692 0)
(-0.00953773 0.0036118 0)
(-0.0104357 0.0036791 0)
(-0.0113469 0.00372957 0)
(-0.0122676 0.00376401 0)
(-0.0131941 0.0037832 0)
(-0.014123 0.00378789 0)
(-0.0150509 0.00377879 0)
(-0.0159746 0.00375663 0)
(-0.016891 0.00372207 0)
(-0.0177972 0.00367568 0)
(-0.0186904 0.00361797 0)
(-0.019568 0.00354947 0)
(-0.0204271 0.00347065 0)
(-0.0212655 0.00338191 0)
(-0.0220807 0.00328359 0)
(-0.0228703 0.00317603 0)
(-0.0236321 0.00305952 0)
(-0.0243639 0.00293434 0)
(-0.0250635 0.00280069 0)
(-0.0257289 0.00265877 0)
(-0.0263581 0.0025088 0)
(-0.0269491 0.002351 0)
(-0.0275 0.00218555 0)
(-0.0280091 0.00201266 0)
(-0.0284744 0.00183251 0)
(-0.0288943 0.00164534 0)
(-0.0292671 0.00145145 0)
(-0.0295914 0.00125111 0)
(-0.0298657 0.00104466 0)
(-0.0300886 0.000832457 0)
(-0.0302588 0.000614973 0)
(-0.0303753 0.000392698 0)
(-0.0304369 0.000166157 0)
(-0.0304428 -6.40712e-05 0)
(-0.0303924 -0.000297335 0)
(-0.0302851 -0.000532907 0)
(-0.0301205 -0.000769993 0)
(-0.0298984 -0.00100775 0)
(-0.0296188 -0.00124528 0)
(-0.0292821 -0.00148166 0)
(-0.0288886 -0.00171585 0)
(-0.0284392 -0.00194678 0)
(-0.0279347 -0.00217333 0)
(-0.0273764 -0.00239438 0)
(-0.0267658 -0.00260875 0)
(-0.0261047 -0.00281525 0)
(-0.0253951 -0.00301264 0)
(-0.0246393 -0.00319968 0)
(-0.02384 -0.00337514 0)
(-0.0230001 -0.00353782 0)
(-0.0221228 -0.00368651 0)
(-0.0212116 -0.00382005 0)
(-0.0202701 -0.00393726 0)
(-0.0193023 -0.00403706 0)
(-0.0183125 -0.00411845 0)
(-0.017305 -0.00418049 0)
(-0.0162845 -0.00422234 0)
(-0.0152559 -0.00424325 0)
(-0.014224 -0.00424255 0)
(-0.0131939 -0.00421972 0)
(-0.0121708 -0.00417436 0)
(-0.0111599 -0.00410623 0)
(-0.0101666 -0.00401525 0)
(-0.00919598 -0.00390148 0)
(-0.00825323 -0.00376518 0)
(-0.00734343 -0.00360679 0)
(-0.00647149 -0.003427 0)
(-0.0056421 -0.00322674 0)
(-0.00485971 -0.00300719 0)
(-0.00412837 -0.00276987 0)
(-0.00345171 -0.00251668 0)
(-0.00283283 -0.00224998 0)
(-0.00227432 -0.00197269 0)
(-0.00177813 -0.00168842 0)
(-0.00134545 -0.00140158 0)
(-0.000976544 -0.00111757 0)
(-0.000670786 -0.000843036 0)
(-0.000426641 -0.00058622 0)
(-0.000241457 -0.000357325 0)
(-0.000111339 -0.000168858 0)
(-3.27352e-05 -3.61045e-05 0)
(-2.88109e-06 2.12473e-05 0)
(-9.84327e-06 7.98111e-05 0)
(-7.1784e-05 0.000272659 0)
(-0.000215692 0.000506155 0)
(-0.000432996 0.000789715 0)
(-0.00071967 0.00110763 0)
(-0.00107512 0.00144333 0)
(-0.0014982 0.0017845 0)
(-0.0019868 0.0021219 0)
(-0.0025385 0.00244873 0)
(-0.00315035 0.00275991 0)
(-0.00381902 0.00305181 0)
(-0.00454069 0.00332209 0)
(-0.00531135 0.00356923 0)
(-0.00612677 0.00379232 0)
(-0.0069825 0.00399107 0)
(-0.00787403 0.00416556 0)
(-0.00879692 0.00431616 0)
(-0.00974668 0.00444344 0)
(-0.0107188 0.00454814 0)
(-0.0117091 0.00463111 0)
(-0.0127134 0.00469326 0)
(-0.0137275 0.00473554 0)
(-0.0147476 0.00475885 0)
(-0.0157699 0.00476408 0)
(-0.0167908 0.00475214 0)
(-0.0178067 0.00472386 0)
(-0.0188144 0.00468001 0)
(-0.0198107 0.00462131 0)
(-0.0207925 0.00454842 0)
(-0.0217568 0.00446199 0)
(-0.0227008 0.00436255 0)
(-0.0236219 0.00425059 0)
(-0.0245172 0.00412655 0)
(-0.0253843 0.00399086 0)
(-0.0262207 0.0038439 0)
(-0.0270239 0.003686 0)
(-0.0277918 0.00351742 0)
(-0.0285219 0.00333843 0)
(-0.0292121 0.0031493 0)
(-0.0298602 0.00295033 0)
(-0.0304642 0.00274175 0)
(-0.0310221 0.00252381 0)
(-0.0315319 0.00229683 0)
(-0.0319918 0.0020611 0)
(-0.0324 0.00181698 0)
(-0.0327548 0.00156482 0)
(-0.0330547 0.00130506 0)
(-0.0332982 0.00103821 0)
(-0.0334838 0.000764847 0)
(-0.0336104 0.000485573 0)
(-0.0336769 0.000201047 0)
(-0.0336824 -8.80008e-05 0)
(-0.0336261 -0.000380735 0)
(-0.0335074 -0.000676231 0)
(-0.0333259 -0.000973514 0)
(-0.0330814 -0.00127155 0)
(-0.0327741 -0.00156923 0)
(-0.0324041 -0.00186536 0)
(-0.031972 -0.00215866 0)
(-0.0314786 -0.0024478 0)
(-0.030925 -0.00273142 0)
(-0.0303124 -0.00300811 0)
(-0.0296427 -0.00327641 0)
(-0.0289176 -0.00353481 0)
(-0.0281395 -0.0037818 0)
(-0.0273108 -0.00401585 0)
(-0.0264344 -0.00423543 0)
(-0.0255136 -0.00443905 0)
(-0.0245517 -0.00462521 0)
(-0.0235525 -0.00479245 0)
(-0.0225201 -0.00493934 0)
(-0.0214587 -0.00506455 0)
(-0.020373 -0.00516685 0)
(-0.0192677 -0.00524508 0)
(-0.0181479 -0.00529821 0)
(-0.0170187 -0.0053253 0)
(-0.0158856 -0.00532554 0)
(-0.0147538 -0.00529831 0)
(-0.0136293 -0.00524314 0)
(-0.0125174 -0.00515975 0)
(-0.011424 -0.00504804 0)
(-0.0103546 -0.00490813 0)
(-0.00931483 -0.00474035 0)
(-0.0083101 -0.00454532 0)
(-0.00734569 -0.00432391 0)
(-0.00642664 -0.00407732 0)
(-0.00555771 -0.00380704 0)
(-0.00474325 -0.00351499 0)
(-0.00398716 -0.00320354 0)
(-0.00329283 -0.0028756 0)
(-0.0026631 -0.00253471 0)
(-0.00210017 -0.00218519 0)
(-0.00160547 -0.00183221 0)
(-0.00117959 -0.00148204 0)
(-0.000822295 -0.00114226 0)
(-0.000532576 -0.000822047 0)
(-0.000308412 -0.000532474 0)
(-0.000146665 -0.000286831 0)
(-4.54483e-05 -0.000101318 0)
(-4.82029e-06 2.26369e-06 0)
(-1.19637e-05 0.000119022 0)
(-8.5428e-05 0.000390831 0)
(-0.000254214 0.000701719 0)
(-0.000506239 0.00106085 0)
(-0.000835877 0.00145227 0)
(-0.00124171 0.00185941 0)
(-0.00172093 0.0022699 0)
(-0.00227077 0.00267399 0)
(-0.00288806 0.0030645 0)
(-0.00356935 0.00343593 0)
(-0.00431069 0.0037844 0)
(-0.00510793 0.00410715 0)
(-0.00595672 0.00440241 0)
(-0.0068525 0.00466916 0)
(-0.00779056 0.00490696 0)
(-0.00876616 0.00511589 0)
(-0.00977456 0.00529627 0)
(-0.010811 0.00544883 0)
(-0.0118709 0.00557431 0)
(-0.0129497 0.00567366 0)
(-0.0140428 0.00574795 0)
(-0.015146 0.00579824 0)
(-0.0162552 0.00582556 0)
(-0.0173663 0.00583099 0)
(-0.0184755 0.0058156 0)
(-0.0195789 0.00578035 0)
(-0.0206732 0.0057261 0)
(-0.0217548 0.00565372 0)
(-0.0228204 0.00556407 0)
(-0.0238669 0.00545786 0)
(-0.0248912 0.00533573 0)
(-0.0258903 0.00519826 0)
(-0.0268614 0.00504602 0)
(-0.0278017 0.00487953 0)
(-0.0287086 0.0046992 0)
(-0.0295794 0.00450543 0)
(-0.0304117 0.0042986 0)
(-0.031203 0.00407906 0)
(-0.0319508 0.00384714 0)
(-0.032653 0.00360316 0)
(-0.0333073 0.00334744 0)
(-0.0339114 0.00308033 0)
(-0.0344634 0.0028022 0)
(-0.0349612 0.00251345 0)
(-0.035403 0.00221451 0)
(-0.0357869 0.00190582 0)
(-0.0361112 0.00158796 0)
(-0.0363744 0.00126155 0)
(-0.0365749 0.000927282 0)
(-0.0367115 0.000585892 0)
(-0.036783 0.00023819 0)
(-0.0367884 -0.000114904 0)
(-0.0367269 -0.000472363 0)
(-0.0365979 -0.000833081 0)
(-0.0364009 -0.00119589 0)
(-0.0361358 -0.00155952 0)
(-0.0358027 -0.00192262 0)
(-0.0354017 -0.00228374 0)
(-0.0349336 -0.00264133 0)
(-0.0343991 -0.0029938 0)
(-0.0337995 -0.00333949 0)
(-0.0331361 -0.0036767 0)
(-0.0324108 -0.00400365 0)
(-0.0316257 -0.00431853 0)
(-0.030783 -0.00461949 0)
(-0.0298856 -0.00490471 0)
(-0.0289366 -0.00517235 0)
(-0.0279394 -0.00542059 0)
(-0.0268975 -0.00564761 0)
(-0.0258152 -0.00585166 0)
(-0.0246967 -0.00603102 0)
(-0.0235466 -0.00618412 0)
(-0.0223698 -0.00630945 0)
(-0.0211716 -0.00640563 0)
(-0.0199573 -0.00647142 0)
(-0.0187324 -0.00650567 0)
(-0.0175026 -0.00650745 0)
(-0.0162738 -0.00647601 0)
(-0.0150521 -0.00641082 0)
(-0.0138434 -0.00631155 0)
(-0.0126539 -0.0061781 0)
(-0.0114894 -0.00601066 0)
(-0.010356 -0.00580967 0)
(-0.00925951 -0.00557589 0)
(-0.00820547 -0.00531041 0)
(-0.00719927 -0.0050147 0)
(-0.00624597 -0.0046906 0)
(-0.00535024 -0.00434044 0)
(-0.00451625 -0.00396708 0)
(-0.0037477 -0.00357399 0)
(-0.0030477 -0.00316532 0)
(-0.00241873 -0.00274605 0)
(-0.00186256 -0.00232213 0)
(-0.00138014 -0.00190062 0)
(-0.000971705 -0.00148995 0)
(-0.000636778 -0.00110008 0)
(-0.000374008 -0.000742751 0)
(-0.000181104 -0.000431796 0)
(-5.77553e-05 -0.000184008 0)
(-6.6834e-06 -2.31141e-05 0)
(-1.38213e-05 0.000165208 0)
(-9.89241e-05 0.000527737 0)
(-0.000291673 0.000926811 0)
(-0.000577608 0.00137066 0)
(-0.000949572 0.00184302 0)
(-0.00140444 0.00232829 0)
(-0.00193883 0.00281355 0)
(-0.00254885 0.00328908 0)
(-0.00323059 0.00374721 0)
(-0.00397995 0.00418239 0)
(-0.00479253 0.00459037 0)
(-0.00566372 0.00496816 0)
(-0.00658879 0.00531382 0)
(-0.00756289 0.00562622 0)
(-0.00858098 0.00590481 0)
(-0.00963806 0.00614962 0)
(-0.0107292 0.00636104 0)
(-0.0118493 0.00653977 0)
(-0.0129937 0.00668673 0)
(-0.0141573 0.00680298 0)
(-0.0153357 0.00688968 0)
(-0.0165243 0.00694797 0)
(-0.0177187 0.00697909 0)
(-0.0189146 0.00698432 0)
(-0.0201079 0.00696481 0)
(-0.0212948 0.00692163 0)
(-0.0224715 0.00685586 0)
(-0.0236342 0.00676852 0)
(-0.0247795 0.00666054 0)
(-0.025904 0.00653276 0)
(-0.0270046 0.00638593 0)
(-0.0280779 0.00622079 0)
(-0.029121 0.00603799 0)
(-0.0301308 0.00583811 0)
(-0.0311047 0.00562166 0)
(-0.0320397 0.0053891 0)
(-0.0329332 0.00514091 0)
(-0.0337826 0.00487754 0)
(-0.0345854 0.00459936 0)
(-0.035339 0.00430676 0)
(-0.0360412 0.00400015 0)
(-0.0366895 0.00367997 0)
(-0.0372818 0.00334667 0)
(-0.037816 0.00300072 0)
(-0.03829 0.00264263 0)
(-0.0387019 0.002273 0)
(-0.0390499 0.00189252 0)
(-0.0393322 0.00150193 0)
(-0.0395474 0.00110203 0)
(-0.0396941 0.000693711 0)
(-0.0397709 0.000277966 0)
(-0.0397769 -0.000144098 0)
(-0.0397111 -0.000571259 0)
(-0.039573 -0.00100221 0)
(-0.0393619 -0.00143557 0)
(-0.0390779 -0.00186982 0)
(-0.0387209 -0.00230336 0)
(-0.0382913 -0.00273443 0)
(-0.0377895 -0.00316124 0)