/*--------------------------------*- C++ -*----------------------------------*\
| =========                 |                                                 |
| \\      /  F ield         | OpenFOAM: The Open Source CFD Toolbox           |
|  \\    /   O peration     | Version:  2512                                  |
|   \\  /    A nd           | Website:  www.openfoam.com                      |
|    \\/     M anipulation  |                                                 |
\*---------------------------------------------------------------------------*/
FoamFile
{
    version     2.0;
    format      ascii;
    arch        "LSB;label=32;scalar=64";
    class       surfaceScalarField;
    location    "0.48";
    object      phi;
}
// * * * * * * * * * * * * * * * * * * * * * * * * * * * * * * * * * * * * * //

dimensions      [0 3 -1 0 0 0 0];

oriented        oriented;

internalField   nonuniform List<scalar> 
19800
(
7.68655e-11
-7.68469e-11
2.38803e-10
-1.61963e-10
3.98235e-10
-1.59436e-10
5.00293e-10
-1.02056e-10
5.16513e-10
-1.62206e-11
4.33468e-10
8.30374e-11
2.4661e-10
1.8687e-10
-4.33811e-11
2.89982e-10
-4.32653e-10
3.89278e-10
-9.15607e-10
4.82954e-10
-1.4856e-09
5.69986e-10
-2.13547e-09
6.49878e-10
-2.85791e-09
7.22435e-10
-3.64561e-09
7.87705e-10
-4.49147e-09
8.45864e-10
-5.38863e-09
8.97159e-10
-6.33053e-09
9.41912e-10
-7.31098e-09
9.80463e-10
-8.32413e-09
1.01315e-09
-9.36446e-09
1.04033e-09
-1.04268e-08
1.06233e-09
-1.15062e-08
1.07945e-09
-1.25982e-08
1.09196e-09
-1.36983e-08
1.10012e-09
-1.48025e-08
1.10416e-09
-1.59067e-08
1.10425e-09
-1.70073e-08
1.10056e-09
-1.81005e-08
1.0932e-09
-1.91828e-08
1.08228e-09
-2.02507e-08
1.06786e-09
-2.13007e-08
1.05e-09
-2.23294e-08
1.02873e-09
-2.33334e-08
1.00406e-09
-2.43094e-08
9.75986e-10
-2.52539e-08
9.44499e-10
-2.61635e-08
9.09588e-10
-2.70347e-08
8.7124e-10
-2.78642e-08
8.2944e-10
-2.86484e-08
7.8418e-10
-2.93838e-08
7.35457e-10
-3.00671e-08
6.83295e-10
-3.06948e-08
6.27731e-10
-3.12637e-08
5.68814e-10
-3.17703e-08
5.06628e-10
-3.22116e-08
4.41272e-10
-3.25844e-08
3.72878e-10
-3.28861e-08
3.01617e-10
-3.31137e-08
2.27682e-10
-3.3265e-08
1.51299e-10
-3.33378e-08
7.27372e-11
-3.333e-08
-7.7056e-12
-3.32404e-08
-8.96928e-11
-3.30675e-08
-1.72846e-10
-3.28107e-08
-2.5677e-10
-3.24697e-08
-3.41033e-10
-3.20445e-08
-4.25166e-10
-3.15359e-08
-5.08677e-10
-3.09448e-08
-5.91055e-10
-3.02731e-08
-6.7176e-10
-2.95228e-08
-7.50243e-10
-2.86968e-08
-8.25956e-10
-2.77985e-08
-8.9833e-10
-2.68317e-08
-9.66796e-10
-2.58009e-08
-1.03081e-09
-2.47111e-08
-1.08982e-09
-2.35678e-08
-1.14331e-09
-2.2377e-08
-1.19078e-09
-2.11452e-08
-1.23178e-09
-1.98793e-08
-1.26587e-09
-1.85867e-08
-1.29267e-09
-1.72748e-08
-1.31185e-09
-1.59517e-08
-1.32315e-09
-1.46253e-08
-1.32634e-09
-1.3304e-08
-1.32127e-09
-1.19962e-08
-1.30785e-09
-1.07101e-08
-1.28607e-09
-9.45416e-09
-1.25598e-09
-8.23645e-09
-1.2177e-09
-7.06501e-09
-1.17144e-09
-5.94752e-09
-1.11748e-09
-4.89137e-09
-1.05616e-09
-3.90347e-09
-9.87901e-10
-2.99027e-09
-9.13198e-10
-2.15764e-09
-8.32625e-10
-1.41082e-09
-7.46831e-10
-7.54286e-10
-6.56542e-10
-1.91708e-10
-5.62583e-10
2.74178e-10
-4.65889e-10
6.417e-10
-3.67527e-10
9.10431e-10
-2.68734e-10
1.08142e-09
-1.70989e-10
1.15753e-09
-7.61022e-11
1.14389e-09
1.36377e-11
1.04868e-09
9.5211e-11
8.84194e-10
1.64489e-10
6.68528e-10
2.15674e-10
4.27908e-10
2.40628e-10
2.00237e-10
2.27672e-10
3.94725e-11
1.60758e-10
3.94741e-11
1.62139e-10
-2.39015e-10
4.15768e-10
-4.1555e-10
6.17132e-10
-3.60826e-10
6.69792e-10
-1.54708e-10
5.12017e-10
1.41544e-10
1.08802e-10
4.86269e-10
-5.56001e-10
8.51663e-10
-1.48558e-09
1.21958e-09
-2.67456e-09
1.57827e-09
-4.11188e-09
1.92027e-09
-5.78288e-09
2.241e-09
-7.67078e-09
2.53777e-09
-9.7576e-09
2.80926e-09
-1.20249e-08
3.05501e-09
-1.44543e-08
3.27522e-09
-1.70276e-08
3.47046e-09
-1.97273e-08
3.6416e-09
-2.25364e-08
3.78964e-09
-2.5439e-08
3.91567e-09
-2.84194e-08
4.02082e-09
-3.14633e-08
4.10618e-09
-3.45566e-08
4.17278e-09
-3.76863e-08
4.2216e-09
-4.08397e-08
4.25352e-09
-4.40048e-08
4.2693e-09
-4.71702e-08
4.26963e-09
-5.03247e-08
4.25508e-09
-5.34576e-08
4.22611e-09
-5.65584e-08
4.18309e-09
-5.96169e-08
4.12632e-09
-6.26228e-08
4.05599e-09
-6.55663e-08
3.97224e-09
-6.84374e-08
3.87515e-09
-7.12262e-08
3.76477e-09
-7.39228e-08
3.64108e-09
-7.65173e-08
3.50409e-09
-7.89998e-08
3.35378e-09
-8.13605e-08
3.19015e-09
-8.35896e-08
3.01322e-09
-8.56771e-08
2.82305e-09
-8.76136e-08
2.61974e-09
-8.93894e-08
2.4035e-09
-9.09951e-08
2.17457e-09
-9.24218e-08
1.9333e-09
-9.36606e-08
1.68012e-09
-9.47033e-08
1.41559e-09
-9.55421e-08
1.14037e-09
-9.61696e-08
8.55237e-10
-9.65794e-08
5.61097e-10
-9.67657e-08
2.58982e-10
-9.67235e-08
-4.99356e-11
-9.64488e-08
-3.64373e-10
-9.59387e-08
-6.82913e-10
-9.51915e-08
-1.00401e-09
-9.42065e-08
-1.32601e-09
-9.29845e-08
-1.64718e-09
-9.15275e-08
-1.96564e-09
-8.98391e-08
-2.27947e-09
-8.79242e-08
-2.58667e-09
-8.57893e-08
-2.88518e-09
-8.34423e-08
-3.1729e-09
-8.08929e-08
-3.44776e-09
-7.8152e-08
-3.70766e-09
-7.52323e-08
-3.95052e-09
-7.21478e-08
-4.17434e-09
-6.89139e-08
-4.3772e-09
-6.55474e-08
-4.55726e-09
-6.20664e-08
-4.71279e-09
-5.849e-08
-4.84225e-09
-5.48384e-08
-4.94424e-09
-5.11328e-08
-5.01752e-09
-4.73948e-08
-5.0611e-09
-4.3647e-08
-5.0742e-09
-3.9912e-08
-5.05626e-09
-3.62128e-08
-5.00699e-09
-3.25726e-08
-4.92634e-09
-2.9014e-08
-4.81455e-09
-2.55596e-08
-4.67212e-09
-2.22312e-08
-4.49983e-09
-1.90499e-08
-4.29874e-09
-1.60359e-08
-4.0702e-09
-1.3208e-08
-3.81584e-09
-1.05836e-08
-3.53758e-09
-8.17859e-09
-3.23764e-09
-6.00689e-09
-2.91854e-09
-4.0803e-09
-2.58314e-09
-2.4082e-09
-2.2347e-09
-9.97233e-10
-1.87686e-09
1.49077e-10
-1.51384e-09
1.03085e-09
-1.1505e-09
1.65243e-09
-7.92571e-10
2.02328e-09
-4.46954e-10
2.15906e-09
-1.22137e-10
2.08311e-09
1.7116e-10
1.82848e-09
4.19139e-10
1.4403e-09
6.03861e-10
9.7867e-10
7.02264e-10
5.20853e-10
6.85486e-10
1.60173e-10
5.21442e-10
1.99655e-10
1.60545e-10
-3.99563e-10
3.63144e-10
-6.18172e-10
4.38688e-10
-4.36384e-10
2.73112e-10
1.08653e-11
-2.10073e-10
6.2472e-10
-1.05781e-09
1.334e-09
-2.294e-09
2.08786e-09
-3.92562e-09
2.8512e-09
-5.94743e-09
3.60009e-09
-8.34567e-09
4.31852e-09
-1.11008e-08
4.99608e-09
-1.41893e-08
5.62629e-09
-1.75855e-08
6.20552e-09
-2.12626e-08
6.73207e-09
-2.5193e-08
7.20569e-09
-2.93497e-08
7.62708e-09
-3.37057e-08
7.99761e-09
-3.82351e-08
8.31904e-09
-4.29128e-08
8.59338e-09
-4.77147e-08
8.82274e-09
-5.26178e-08
9.00925e-09
-5.76e-08
9.15496e-09
-6.26402e-08
9.26182e-09
-6.77183e-08
9.33158e-09
-7.28148e-08
9.36583e-09
-7.79111e-08
9.36596e-09
-8.29892e-08
9.33316e-09
-8.80315e-08
9.26842e-09
-9.3021e-08
9.17254e-09
-9.79408e-08
9.04615e-09
-1.02775e-07
8.88971e-09
-1.07506e-07
8.70354e-09
-1.12119e-07
8.48787e-09
-1.16597e-07
8.24283e-09
-1.20924e-07
7.96848e-09
-1.25085e-07
7.66487e-09
-1.29063e-07
7.33204e-09
-1.32843e-07
6.97006e-09
-1.36409e-07
6.57905e-09
-1.39745e-07
6.15923e-09
-1.42836e-07
5.71091e-09
-1.45667e-07
5.23456e-09
-1.48223e-07
4.73082e-09
-1.50491e-07
4.2005e-09
-1.52455e-07
3.64463e-09
-1.54104e-07
3.06447e-09
-1.55425e-07
2.46149e-09
-1.56407e-07
1.83745e-09
-1.57041e-07
1.19436e-09
-1.57316e-07
5.34496e-10
-1.57226e-07
-1.39587e-10
-1.56766e-07
-8.25066e-10
-1.5593e-07
-1.51887e-09
-1.54716e-07
-2.21767e-09
-1.53124e-07
-2.91788e-09
-1.51156e-07
-3.61571e-09
-1.48814e-07
-4.30719e-09
-1.46105e-07
-4.98816e-09
-1.43038e-07
-5.65432e-09
-1.39622e-07
-6.3013e-09
-1.3587e-07
-6.92462e-09
-1.31798e-07
-7.5198e-09
-1.27423e-07
-8.0824e-09
-1.22766e-07
-8.60802e-09
-1.17848e-07
-9.09241e-09
-1.12693e-07
-9.53144e-09
-1.07329e-07
-9.92123e-09
-1.01784e-07
-1.02582e-08
-9.60874e-08
-1.05389e-08
-9.02711e-08
-1.07605e-08
-8.43682e-08
-1.09204e-08
-7.84128e-08
-1.10165e-08
-7.24399e-08
-1.10471e-08
-6.6485e-08
-1.10112e-08
-6.0584e-08
-1.0908e-08
-5.47728e-08
-1.07375e-08
-4.90871e-08
-1.05003e-08
-4.35616e-08
-1.01976e-08
-3.82305e-08
-9.83089e-09
-3.31266e-08
-9.40266e-09
-2.8281e-08
-8.91581e-09
-2.37229e-08
-8.37392e-09
-1.94793e-08
-7.78117e-09
-1.55745e-08
-7.14245e-09
-1.20298e-08
-6.4633e-09
-8.86294e-09
-5.75e-09
-6.08797e-09
-5.00967e-09
-3.71446e-09
-4.25037e-09
-1.747e-09
-3.4813e-09
-1.84484e-10
-2.71302e-09
9.80806e-10
-1.95786e-09
1.76427e-09
-1.23041e-09
2.19038e-09
-5.48232e-10
2.29436e-09
6.71839e-11
2.12418e-09
5.89321e-10
1.7428e-09
9.85255e-10
1.23035e-09
1.21472e-09
6.85711e-10
1.23012e-09
2.26865e-10
9.803e-10
4.26524e-10
1.0464e-10
-5.04203e-10
1.59418e-10
-6.72935e-10
-6.36571e-12
-2.70608e-10
-5.09604e-10
5.1413e-10
-1.43126e-09
1.54637e-09
-2.82198e-09
2.72473e-09
-4.70878e-09
3.97468e-09
-7.10027e-09
5.24269e-09
-9.99106e-09
6.49088e-09
-1.33655e-08
7.69293e-09
-1.72004e-08
8.83101e-09
-2.14677e-08
9.89358e-09
-2.61358e-08
1.08736e-08
-3.11712e-08
1.17675e-08
-3.65395e-08
1.25739e-08
-4.22058e-08
1.32934e-08
-4.81358e-08
1.39276e-08
-5.42958e-08
1.4479e-08
-6.0653e-08
1.49505e-08
-6.71755e-08
1.53453e-08
-7.3833e-08
1.56667e-08
-8.05958e-08
1.59178e-08
-8.74359e-08
1.61019e-08
-9.43259e-08
1.62216e-08
-1.0124e-07
1.62796e-08
-1.08152e-07
1.62781e-08
-1.15038e-07
1.62192e-08
-1.21874e-07
1.61044e-08
-1.28636e-07
1.5935e-08
-1.35302e-07
1.57123e-08
-1.4185e-07
1.5437e-08
-1.48256e-07
1.51096e-08
-1.54499e-07
1.47307e-08
-1.60556e-07
1.43005e-08
-1.66407e-07
1.38193e-08
-1.72029e-07
1.32871e-08
-1.77401e-07
1.27042e-08
-1.82502e-07
1.20708e-08
-1.8731e-07
1.13872e-08
-1.91805e-07
1.06538e-08
-1.95965e-07
9.87146e-09
-1.99772e-07
9.04095e-09
-2.03204e-07
8.16351e-09
-2.06245e-07
7.24064e-09
-2.08874e-07
6.2742e-09
-2.11076e-07
5.26645e-09
-2.12835e-07
4.22003e-09
-2.14135e-07
3.13801e-09
-2.14965e-07
2.02392e-09
-2.15312e-07
8.81751e-10
-2.15167e-07
-2.84096e-10
-2.14524e-07
-1.46874e-09
-2.13376e-07
-2.66687e-09
-2.11721e-07
-3.87277e-09
-2.09558e-07
-5.08031e-09
-2.06891e-07
-6.28299e-09
-2.03724e-07
-7.47403e-09
-2.00066e-07
-8.64634e-09
-1.95928e-07
-9.79263e-09
-1.91324e-07
-1.09054e-08
-1.86271e-07
-1.19771e-08
-1.80791e-07
-1.30002e-08
-1.74906e-07
-1.39671e-08
-1.68644e-07
-1.48704e-08
-1.62033e-07
-1.57028e-08
-1.55107e-07
-1.64574e-08
-1.47901e-07
-1.71278e-08
-1.40451e-07
-1.77077e-08
-1.32799e-07
-1.81916e-08
-1.24985e-07
-1.85744e-08
-1.17053e-07
-1.8852e-08
-1.09049e-07
-1.90207e-08
-1.01018e-07
-1.90778e-08
-9.30079e-08
-1.90214e-08
-8.50653e-08
-1.88506e-08
-7.72376e-08
-1.85652e-08
-6.95716e-08
-1.81663e-08
-6.21134e-08
-1.76558e-08
-5.49076e-08
-1.70367e-08
-4.79972e-08
-1.6313e-08
-4.14232e-08
-1.54898e-08
-3.52238e-08
-1.45733e-08
-2.94342e-08
-1.35708e-08
-2.4086e-08
-1.24906e-08
-1.92069e-08
-1.13425e-08
-1.48197e-08
-1.01371e-08
-1.09425e-08
-8.88694e-09
-7.58705e-09
-7.60579e-09
-4.75892e-09
-6.30943e-09
-2.45609e-09
-5.01585e-09
-6.68131e-10
-3.74581e-09
6.24974e-10
-2.5235e-09
1.45423e-09
-1.37749e-09
1.86322e-09
-3.41804e-10
1.90988e-09
5.42678e-10
1.66831e-09
1.22684e-09
1.23081e-09
1.65221e-09
7.09867e-10
1.75107e-09
2.41397e-10
1.44878e-09
6.67918e-10
1.95138e-11
-5.23724e-10
-1.37808e-10
-5.15617e-10
-6.25938e-10
2.17516e-10
-1.55452e-09
1.4427e-09
-2.99979e-09
2.99165e-09
-5.01055e-09
4.73549e-09
-7.61281e-09
6.57694e-09
-1.08143e-08
8.44415e-09
-1.46082e-08
1.02848e-08
-1.89768e-08
1.20615e-08
-2.38939e-08
1.37481e-08
-2.93275e-08
1.53272e-08
-3.52414e-08
1.67875e-08
-4.15969e-08
1.8123e-08
-4.83536e-08
1.93307e-08
-5.54708e-08
2.04106e-08
-6.29075e-08
2.13644e-08
-7.06236e-08
2.21951e-08
-7.85794e-08
2.29064e-08
-8.67368e-08
2.35026e-08
-9.50583e-08
2.39882e-08
-1.03508e-07
2.43677e-08
-1.12051e-07
2.46451e-08
-1.20655e-07
2.48247e-08
-1.29285e-07
2.49101e-08
-1.37911e-07
2.49045e-08
-1.46503e-07
2.48107e-08
-1.5503e-07
2.46311e-08
-1.63462e-07
2.43679e-08
-1.71773e-07
2.40225e-08
-1.79932e-07
2.35962e-08
-1.87912e-07
2.30901e-08
-1.95686e-07
2.25047e-08
-2.03227e-07
2.18407e-08
-2.10506e-07
2.10985e-08
-2.17497e-07
2.02784e-08
-2.24174e-07
1.93808e-08
-2.30509e-07
1.84061e-08
-2.36477e-07
1.73552e-08
-2.42052e-07
1.62287e-08
-2.47208e-07
1.50278e-08
-2.51921e-07
1.37542e-08
-2.56168e-07
1.24097e-08
-2.59924e-07
1.09968e-08
-2.63168e-07
9.51837e-09
-2.65879e-07
7.97802e-09
-2.68039e-07
6.37984e-09
-2.6963e-07
4.72861e-09
-2.70636e-07
3.02973e-09
-2.71043e-07
1.28929e-09
-2.70841e-07
-4.85962e-10
-2.70021e-07
-2.28861e-09
-2.68578e-07
-4.11062e-09
-2.66507e-07
-5.9433e-09
-2.6381e-07
-7.77743e-09
-2.6049e-07
-9.60323e-09
-2.56553e-07
-1.14105e-08
-2.52011e-07
-1.31885e-08
-2.46877e-07
-1.49264e-08
-2.4117e-07
-1.6613e-08
-2.3491e-07
-1.8237e-08
-2.28123e-07
-1.97869e-08
-2.20839e-07
-2.12517e-08
-2.13089e-07
-2.262e-08
-2.0491e-07
-2.38814e-08
-1.96342e-07
-2.50252e-08
-1.87428e-07
-2.6042e-08
-1.78214e-07
-2.69224e-08
-1.68747e-07
-2.76583e-08
-1.59079e-07
-2.82422e-08
-1.49263e-07
-2.86677e-08
-1.39354e-07
-2.89297e-08
-1.29408e-07
-2.90239e-08
-1.19482e-07
-2.89477e-08
-1.09633e-07
-2.86997e-08
-9.99183e-08
-2.82798e-08
-9.0395e-08
-2.76896e-08
-8.11188e-08
-2.6932e-08
-7.21439e-08
-2.60116e-08
-6.35223e-08
-2.49345e-08
-5.53036e-08
-2.37085e-08
-4.7534e-08
-2.2343e-08
-4.02559e-08
-2.08489e-08
-3.35076e-08
-1.9239e-08
-2.73221e-08
-1.75279e-08
-2.17271e-08
-1.57322e-08
-1.67437e-08
-1.38703e-08
-1.23864e-08
-1.19632e-08
-8.66128e-09
-1.00345e-08
-5.56611e-09
-8.11102e-09
-3.08864e-09
-6.22328e-09
-1.20572e-09
-4.40642e-09
1.18029e-10
-2.70123e-09
9.31592e-10
-1.15536e-09
1.29907e-09
1.7521e-10
1.30128e-09
1.22463e-09
1.03768e-09
1.9158e-09
6.28842e-10
2.15991e-09
2.20931e-10
1.85669e-09
8.88848e-10
-8.08291e-11
-4.42907e-10
-4.90196e-10
-1.06241e-10
-1.3556e-09
1.08292e-09
-2.77092e-09
2.85803e-09
-4.80227e-09
5.02301e-09
-7.49169e-09
7.42491e-09
-1.08606e-08
9.94589e-09
-1.49134e-08
1.24969e-08
-1.96404e-08
1.50118e-08
-2.50208e-08
1.7442e-08
-3.10255e-08
1.97528e-08
-3.76188e-08
2.19204e-08
-4.47604e-08
2.39292e-08
-5.24072e-08
2.57697e-08
-6.05139e-08
2.74375e-08
-6.90347e-08
2.89313e-08
-7.79231e-08
3.02528e-08
-8.71333e-08
3.14053e-08
-9.66201e-08
3.23932e-08
-1.06339e-07
3.32218e-08
-1.16248e-07
3.38967e-08
-1.26304e-07
3.44235e-08
-1.36466e-07
3.48078e-08
-1.46696e-07
3.50548e-08
-1.56955e-07
3.51693e-08
-1.67206e-07
3.51555e-08
-1.77413e-07
3.50174e-08
-1.8754e-07
3.47581e-08
-1.97553e-07
3.43803e-08
-2.07416e-07
3.38863e-08
-2.17098e-07
3.32779e-08
-2.26564e-07
3.25563e-08
-2.35782e-07
3.17228e-08
-2.4472e-07
3.07781e-08
-2.53344e-07
2.97229e-08
-2.61624e-07
2.8558e-08
-2.69527e-07
2.72839e-08
-2.77023e-07
2.59016e-08
-2.84079e-07
2.44121e-08
-2.90668e-07
2.28168e-08
-2.96757e-07
2.11175e-08
-3.0232e-07
1.93166e-08
-3.07327e-07
1.74168e-08
-3.11752e-07
1.5422e-08
-3.1557e-07
1.33362e-08
-3.18756e-07
1.11646e-08
-3.2129e-07
8.91308e-09
-3.23149e-07
6.58846e-09
-3.24318e-07
4.19838e-09
-3.2478e-07
1.75141e-09
-3.24523e-07
-7.42935e-10
-3.23538e-07
-3.27428e-09
-3.21817e-07
-5.83136e-09
-3.19358e-07
-8.40208e-09
-3.16162e-07
-1.09736e-08
-3.12233e-07
-1.35323e-08
-3.07579e-07
-1.60639e-08
-3.02214e-07
-1.85538e-08
-2.96154e-07
-2.09868e-08
-2.89419e-07
-2.33474e-08
-2.82036e-07
-2.56199e-08
-2.74035e-07
-2.77888e-08
-2.65448e-07
-2.98384e-08
-2.56314e-07
-3.17535e-08
-2.46676e-07
-3.35193e-08
-2.3658e-07
-3.51215e-08
-2.26075e-07
-3.65467e-08
-2.15215e-07
-3.77824e-08
-2.04057e-07
-3.88172e-08
-1.92658e-07
-3.96408e-08
-1.81081e-07
-4.02447e-08
-1.69389e-07
-4.06214e-08
-1.57648e-07
-4.07655e-08
-1.45922e-07
-4.06733e-08
-1.34279e-07
-4.03427e-08
-1.22785e-07
-3.97739e-08
-1.11505e-07
-3.89691e-08
-1.00505e-07
-3.79323e-08
-8.98467e-08
-3.66701e-08
-7.95903e-08
-3.51909e-08
-6.97932e-08
-3.35057e-08
-6.05088e-08
-3.16274e-08
-5.17862e-08
-2.95715e-08
-4.36693e-08
-2.73558e-08
-3.61965e-08
-2.50007e-08
-2.93996e-08
-2.25291e-08
-2.3303e-08
-1.99669e-08
-1.79233e-08
-1.73429e-08
-1.32681e-08
-1.46897e-08
-9.33525e-09
-1.20439e-08
-6.11176e-09
-9.44676e-09
-3.57278e-09
-6.9454e-09
-1.68048e-09
-4.59353e-09
-3.82845e-10
-2.45299e-09
3.8756e-10
-5.95197e-10
7.15009e-10
8.97169e-10
7.02383e-10
1.92843e-09
4.73598e-10
2.38869e-09
1.77827e-10
2.15245e-09
1.06668e-09
-1.88318e-10
-2.54573e-10
-8.72765e-10
5.78195e-10
-2.15013e-09
2.36029e-09
-4.09373e-09
4.80164e-09
-6.75518e-09
7.68446e-09
-1.01661e-08
1.08359e-08
-1.43406e-08
1.41203e-08
-1.92772e-08
1.74335e-08
-2.49618e-08
2.06964e-08
-3.13697e-08
2.38499e-08
-3.84681e-08
2.68511e-08
-4.62175e-08
2.96698e-08
-5.45739e-08
3.22856e-08
-6.349e-08
3.46859e-08
-7.29165e-08
3.68639e-08
-8.28027e-08
3.88175e-08
-9.30976e-08
4.05478e-08
-1.03751e-07
4.20582e-08
-1.14711e-07
4.33538e-08
-1.2593e-07
4.44408e-08
-1.37359e-07
4.53258e-08
-1.48952e-07
4.60157e-08
-1.60661e-07
4.65172e-08
-1.72443e-07
4.68368e-08
-1.84254e-07
4.69803e-08
-1.96052e-07
4.69533e-08
-2.07795e-07
4.67604e-08
-2.19442e-07
4.64057e-08
-2.30955e-07
4.58929e-08
-2.42293e-07
4.52247e-08
-2.53419e-07
4.44034e-08
-2.64293e-07
4.3431e-08
-2.7488e-07
4.23089e-08
-2.8514e-07
4.10384e-08
-2.95037e-07
3.96205e-08
-3.04536e-07
3.80563e-08
-3.13599e-07
3.63469e-08
-3.22191e-07
3.44935e-08
-3.30276e-07
3.24978e-08
-3.37821e-07
3.03619e-08
-3.44792e-07
2.80883e-08
-3.51156e-07
2.56804e-08
-3.56881e-07
2.31422e-08
-3.61938e-07
2.04786e-08
-3.66297e-07
1.76956e-08
-3.69933e-07
1.48e-08
-3.72819e-07
1.17997e-08
-3.74935e-07
8.70389e-09
-3.76259e-07
5.52282e-09
-3.76776e-07
2.26793e-09
-3.76471e-07
-1.04819e-09
-3.75333e-07
-4.41176e-09
-3.73356e-07
-7.80789e-09
-3.70538e-07
-1.12206e-08
-3.66879e-07
-1.4633e-08
-3.62384e-07
-1.80271e-08
-3.57063e-07
-2.13843e-08
-3.50932e-07
-2.46852e-08
-3.44009e-07
-2.791e-08
-3.36318e-07
-3.10384e-08
-3.27888e-07
-3.405e-08
-3.18752e-07
-3.69241e-08
-3.0895e-07
-3.96406e-08
-2.98524e-07
-4.21795e-08
-2.87522e-07
-4.45213e-08
-2.75996e-07
-4.66477e-08
-2.64002e-07
-4.85409e-08
-2.51599e-07
-5.01847e-08
-2.38852e-07
-5.15642e-08
-2.25827e-07
-5.26662e-08
-2.12592e-07
-5.34792e-08
-1.9922e-07
-5.39938e-08
-1.85783e-07
-5.42029e-08
-1.72355e-07
-5.41015e-08
-1.5901e-07
-5.36871e-08
-1.45824e-07
-5.296e-08
-1.3287e-07
-5.1923e-08
-1.20221e-07
-5.05816e-08
-1.07947e-07
-4.89443e-08
-9.61151e-08
-4.70224e-08
-8.47905e-08
-4.48302e-08
-7.4033e-08
-4.23849e-08
-6.38976e-08
-3.97069e-08
-5.44338e-08
-3.68196e-08
-4.56847e-08
-3.37498e-08
-3.76862e-08
-3.05276e-08
-3.04662e-08
-2.71869e-08
-2.40436e-08
-2.37654e-08
-1.84279e-08
-2.03054e-08
-1.36177e-08
-1.68541e-08
-9.60025e-09
-1.34642e-08
-6.3504e-09
-1.01953e-08
-3.82944e-09
-7.11449e-09
-1.98427e-09
-4.29816e-09
-7.4636e-10
-1.83312e-09
-3.0521e-11
1.81329e-10
2.66501e-10
1.63141e-09
2.68013e-10
2.38718e-09
1.20499e-10
2.29997e-09
1.18719e-09
-2.98373e-10
4.37892e-11
-1.26972e-09
1.54956e-09
-2.97934e-09
4.0699e-09
-5.47743e-09
7.29973e-09
-8.79829e-09
1.10053e-08
-1.29606e-08
1.49982e-08
-1.79685e-08
1.91282e-08
-2.38131e-08
2.32781e-08
-3.04741e-08
2.73574e-08
-3.79219e-08
3.12977e-08
-4.61191e-08
3.50484e-08
-5.50224e-08
3.85731e-08
-6.45837e-08
4.18469e-08
-7.47519e-08
4.48541e-08
-8.54736e-08
4.75856e-08
-9.66941e-08
5.0038e-08
-1.08358e-07
5.22119e-08
-1.20411e-07
5.41108e-08
-1.32797e-07
5.57403e-08
-1.45464e-07
5.71072e-08
-1.58357e-07
5.82193e-08
-1.71426e-07
5.90845e-08
-1.84619e-07
5.97108e-08
-1.97889e-07
6.01058e-08
-2.11185e-07
6.02766e-08
-2.24461e-07
6.02297e-08
-2.37672e-07
5.99707e-08
-2.50771e-07
5.95048e-08
-2.63714e-07
5.88362e-08
-2.76458e-07
5.79685e-08
-2.88959e-07
5.69046e-08
-3.01175e-07
5.56469e-08
-3.13063e-07
5.41973e-08
-3.24583e-07
5.25577e-08
-3.35691e-07
5.07294e-08
-3.46349e-07
4.87139e-08
-3.56515e-07
4.65129e-08
-3.6615e-07
4.41281e-08
-3.75214e-07
4.1562e-08
-3.83669e-07
3.88173e-08
-3.91479e-07
3.58977e-08
-3.98606e-07
3.28075e-08
-4.05016e-07
2.95521e-08
-4.10675e-07
2.6138e-08
-4.15552e-07
2.2573e-08
-4.19618e-07
1.88658e-08
-4.22845e-07
1.50269e-08
-4.25209e-07
1.10679e-08
-4.26689e-07
7.00205e-09
-4.27265e-07
2.84387e-09
-4.26922e-07
-1.39052e-09
-4.2565e-07
-5.68361e-09
-4.23442e-07
-1.00165e-08
-4.20294e-07
-1.43689e-08
-4.16207e-07
-1.87195e-08
-4.11189e-07
-2.30455e-08
-4.05249e-07
-2.73235e-08
-3.98406e-07
-3.1529e-08
-3.90679e-07
-3.56369e-08
-3.82095e-07
-3.96219e-08
-3.72687e-07
-4.3458e-08
-3.62492e-07
-4.71196e-08
-3.51551e-07
-5.05811e-08
-3.39913e-07
-5.38174e-08
-3.2763e-07
-5.68043e-08
-3.1476e-07
-5.95183e-08
-3.01363e-07
-6.19375e-08
-2.87506e-07
-6.40414e-08
-2.73259e-07
-6.58113e-08
-2.58695e-07
-6.72306e-08
-2.43889e-07
-6.82848e-08
-2.28921e-07
-6.89624e-08
-2.1387e-07
-6.9254e-08
-1.98817e-07
-6.91537e-08
-1.83846e-07
-6.86584e-08
-1.69038e-07
-6.77682e-08
-1.54474e-07
-6.64869e-08
-1.40234e-07
-6.48214e-08
-1.26396e-07
-6.27824e-08
-1.13034e-07
-6.03843e-08
-1.0022e-07
-5.7645e-08
-8.80182e-08
-5.45863e-08
-7.64911e-08
-5.1234e-08
-6.5693e-08
-4.76177e-08
-5.56717e-08
-4.37711e-08
-4.64672e-08
-3.97321e-08
-3.81108e-08
-3.55432e-08
-3.06245e-08
-3.12518e-08
-2.40198e-08
-2.69101e-08
-1.82971e-08
-2.25768e-08
-1.34448e-08
-1.83165e-08
-9.43844e-09
-1.42016e-08
-6.23993e-09
-1.0313e-08
-3.79666e-09
-6.74142e-09
-2.04077e-09
-3.589e-09
-8.88276e-10
-9.71163e-10
-2.38e-10
9.81135e-10
2.96973e-11
2.11948e-09
5.46773e-11
2.275e-09
1.24187e-09
-4.08366e-10
4.52162e-10
-1.67124e-09
2.81244e-09
-3.82326e-09
6.22191e-09
-6.89064e-09
1.03671e-08
-1.08888e-08
1.50035e-08
-1.58217e-08
1.99311e-08
-2.16816e-08
2.49882e-08
-2.84507e-08
3.00471e-08
-3.61012e-08
3.50079e-08
-4.45975e-08
3.9794e-08
-5.3897e-08
4.43479e-08
-6.39518e-08
4.86279e-08
-7.47098e-08
5.26049e-08
-8.61157e-08
5.626e-08
-9.81124e-08
5.95822e-08
-1.10641e-07
6.25668e-08
-1.23643e-07
6.52139e-08
-1.37059e-07
6.75268e-08
-1.50831e-07
6.95117e-08
-1.649e-07
7.11761e-08
-1.79209e-07
7.25287e-08
-1.93703e-07
7.35786e-08
-2.08327e-07
7.43347e-08
-2.23027e-07
7.4806e-08
-2.37751e-07
7.50005e-08
-2.52447e-07
7.49259e-08
-2.67066e-07
7.45889e-08
-2.81556e-07
7.39954e-08
-2.9587e-07
7.31504e-08
-3.0996e-07
7.20583e-08
-3.23778e-07
7.07226e-08
-3.37278e-07
6.91463e-08
-3.50412e-07
6.73319e-08
-3.63136e-07
6.52815e-08
-3.75404e-07
6.29971e-08
-3.87171e-07
6.04808e-08
-3.98393e-07
5.77347e-08
-4.09026e-07
5.47613e-08
-4.19028e-07
5.15638e-08
-4.28356e-07
4.81458e-08
-4.3697e-07
4.45121e-08
-4.44831e-07
4.06683e-08
-4.51901e-07
3.66214e-08
-4.58142e-07
3.23796e-08
-4.63522e-07
2.79524e-08
-4.68007e-07
2.33513e-08
-4.71569e-07
1.85889e-08
-4.74181e-07
1.368e-08
-4.7582e-07
8.64073e-09
-4.76465e-07
3.48931e-09
-4.76101e-07
-1.75444e-09
-4.74716e-07
-7.06893e-09
-4.72302e-07
-1.24309e-08
-4.68855e-07
-1.78155e-08
-4.64378e-07
-2.31963e-08
-4.58878e-07
-2.85457e-08
-4.52367e-07
-3.38349e-08
-4.44862e-07
-3.90339e-08
-4.36386e-07
-4.41121e-08
-4.2697e-07
-4.90384e-08
-4.16647e-07
-5.37812e-08
-4.05457e-07
-5.83092e-08
-3.93447e-07
-6.25911e-08
-3.80668e-07
-6.65964e-08
-3.67177e-07
-7.02953e-08
-3.53036e-07
-7.36595e-08
-3.38312e-07
-7.6662e-08
-3.23075e-07
-7.92779e-08
-3.07402e-07
-8.14843e-08
-2.91372e-07
-8.32609e-08
-2.75066e-07
-8.45903e-08
-2.58571e-07
-8.54579e-08
-2.41972e-07
-8.58528e-08
-2.25358e-07
-8.57673e-08
-2.08819e-07
-8.51978e-08
-1.92443e-07
-8.41444e-08
-1.76318e-07
-8.26116e-08
-1.60532e-07
-8.0608e-08
-1.45167e-07
-7.81466e-08
-1.30307e-07
-7.52448e-08
-1.16027e-07
-7.19248e-08
-1.024e-07
-6.82132e-08
-8.94929e-08
-6.41414e-08
-7.73651e-08
-5.97456e-08
-6.60692e-08
-5.50669e-08
-5.56497e-08
-5.01517e-08
-4.61415e-08
-4.50514e-08
-3.757e-08
-3.98233e-08
-2.99494e-08
-3.45307e-08
-2.32825e-08
-2.92436e-08
-1.75599e-08
-2.40392e-08
-1.27587e-08
-1.90028e-08
-8.84266e-09
-1.4229e-08
-5.761e-09
-9.82308e-09
-3.44803e-09
-5.90197e-09
-1.82258e-09
-2.59661e-09
-7.87443e-10
-5.40062e-11
-2.28826e-10
1.56086e-09
-1.58534e-11
2.06204e-09
1.22601e-09
-5.16905e-10
9.69066e-10
-2.07127e-09
4.36681e-09
-4.66886e-09
8.8195e-09
-8.31201e-09
1.40103e-08
-1.29966e-08
1.96881e-08
-1.87105e-08
2.5645e-08
-2.54335e-08
3.17112e-08
-3.3137e-08
3.77506e-08
-4.17849e-08
4.36558e-08
-5.13345e-08
4.93436e-08
-6.17374e-08
5.47508e-08
-7.29405e-08
5.98311e-08
-8.48873e-08
6.45517e-08
-9.75184e-08
6.88911e-08
-1.10773e-07
7.28364e-08
-1.24588e-07
7.63819e-08
-1.38901e-07
7.95271e-08
-1.53649e-07
8.22755e-08
-1.68771e-07
8.46335e-08
-1.84204e-07
8.66094e-08
-1.99889e-07
8.82128e-08
-2.15764e-07
8.94538e-08
-2.31772e-07
9.03426e-08
-2.47855e-07
9.0889e-08
-2.63957e-07
9.11024e-08
-2.80022e-07
9.09914e-08
-2.95997e-07
9.05636e-08
-3.11827e-07
8.98259e-08
-3.27461e-07
8.87841e-08
-3.42846e-07
8.74432e-08
-3.57931e-07
8.58075e-08
-3.72665e-07
8.38804e-08
-3.86998e-07
8.16651e-08
-4.00881e-07
7.91643e-08
-4.14264e-07
7.63804e-08
-4.27099e-07
7.3316e-08
-4.39339e-07
6.9974e-08
-4.50935e-07
6.63577e-08
-4.61842e-07
6.24709e-08
-4.72015e-07
5.83186e-08
-4.81409e-07
5.39065e-08
-4.89983e-07
4.92418e-08
-4.97695e-07
4.4333e-08
-5.04505e-07
3.91903e-08
-5.10378e-07
3.38255e-08
-5.15279e-07
2.82523e-08
-5.19177e-07
2.24864e-08
-5.22042e-07
1.65453e-08
-5.23851e-07
1.0449e-08
-5.2458e-07
4.21912e-09
-5.24214e-07
-2.12032e-09
-5.2274e-07
-8.5434e-09
-5.20149e-07
-1.50222e-08
-5.16437e-07
-2.15269e-08
-5.11608e-07
-2.80259e-08
-5.05667e-07
-3.44861e-08
-4.98629e-07
-4.08729e-08
-4.90512e-07
-4.71508e-08
-4.81341e-07
-5.32831e-08
-4.71147e-07
-5.92326e-08
-4.59967e-07
-6.49616e-08
-4.47843e-07
-7.04328e-08
-4.34826e-07
-7.56088e-08
-4.20969e-07
-8.04533e-08
-4.06333e-07
-8.49307e-08
-3.90986e-07
-8.90071e-08
-3.74997e-07
-9.26505e-08
-3.58444e-07
-9.5831e-08
-3.41407e-07
-9.85213e-08
-3.23971e-07
-1.00697e-07
-3.06223e-07
-1.02338e-07
-2.88256e-07
-1.03425e-07
-2.70162e-07
-1.03947e-07
-2.52035e-07
-1.03894e-07
-2.33972e-07
-1.03261e-07
-2.16068e-07
-1.02048e-07
-1.98418e-07
-1.00262e-07
-1.81115e-07
-9.79109e-08
-1.6425e-07
-9.50115e-08
-1.47911e-07
-9.15843e-08
-1.3218e-07
-8.76556e-08
-1.17136e-07
-8.3257e-08
-1.02852e-07
-7.84261e-08
-8.93911e-08
-7.3206e-08
-7.68126e-08
-6.76455e-08
-6.51647e-08
-6.17996e-08
-5.44866e-08
-5.57294e-08
-4.48074e-08
-4.95025e-08
-3.61448e-08
-4.31934e-08
-2.85046e-08
-3.68838e-08
-2.18802e-08
-3.06636e-08
-1.62515e-08
-2.46314e-08
-1.15849e-08
-1.88956e-08
-7.83272e-09
-1.35753e-08
-4.93246e-09
-8.80222e-09
-2.80712e-09
-4.72196e-09
-1.36481e-09
-1.49632e-09
-4.9892e-10
6.9498e-10
-8.86402e-11
1.65176e-09
1.13737e-09
-6.23211e-10
1.59227e-09
-2.46619e-09
6.20979e-09
-5.50781e-09
1.18611e-08
-9.72724e-09
1.82297e-08
-1.51007e-08
2.50615e-08
-2.15996e-08
3.2144e-08
-2.91901e-08
3.93017e-08
-3.78323e-08
4.63928e-08
-4.74807e-08
5.33042e-08
-5.80848e-08
5.99477e-08
-6.95897e-08
6.62557e-08
-8.19367e-08
7.21781e-08
-9.50643e-08
7.76793e-08
-1.08909e-07
8.27355e-08
-1.23405e-07
8.73326e-08
-1.38487e-07
9.14638e-08
-1.54088e-07
9.51284e-08
-1.70143e-07
9.83301e-08
-1.86585e-07
1.01076e-07
-2.0335e-07
1.03374e-07
-2.20373e-07
1.05236e-07
-2.37591e-07
1.06672e-07
-2.54943e-07
1.07695e-07
-2.72368e-07
1.08314e-07
-2.89805e-07
1.0854e-07
-3.07197e-07
1.08383e-07
-3.24484e-07
1.07851e-07
-3.41611e-07
1.06952e-07
-3.5852e-07
1.05694e-07
-3.75157e-07
1.0408e-07
-3.91467e-07
1.02117e-07
-4.07394e-07
9.98084e-08
-4.22887e-07
9.71578e-08
-4.37891e-07
9.41686e-08
-4.52355e-07
9.08437e-08
-4.66225e-07
8.71866e-08
-4.79452e-07
8.32006e-08
-4.91984e-07
7.88899e-08
-5.03773e-07
7.42593e-08
-5.14769e-07
6.93149e-08
-5.24926e-07
6.40637e-08
-5.34199e-07
5.85144e-08
-5.42543e-07
5.26773e-08
-5.49917e-07
4.65647e-08
-5.56282e-07
4.01907e-08
-5.61602e-07
3.35716e-08
-5.65841e-07
2.67261e-08
-5.68971e-07
1.96752e-08
-5.70964e-07
1.24422e-08
-5.71798e-07
5.0529e-09
-5.71454e-07
-2.46446e-09
-5.69918e-07
-1.00793e-08
-5.67182e-07
-1.77587e-08
-5.63241e-07
-2.54678e-08
-5.58097e-07
-3.31693e-08
-5.51759e-07
-4.08244e-08
-5.44239e-07
-4.83926e-08
-5.35558e-07
-5.5832e-08
-5.25742e-07
-6.30998e-08
-5.14822e-07
-7.01523e-08
-5.02838e-07
-7.69456e-08
-4.89835e-07
-8.34356e-08
-4.75865e-07
-8.95787e-08
-4.60986e-07
-9.53322e-08
-4.45263e-07
-1.00654e-07
-4.28764e-07
-1.05506e-07
-4.11566e-07
-1.09849e-07
-3.93749e-07
-1.13648e-07
-3.75399e-07
-1.16871e-07
-3.56606e-07
-1.1949e-07
-3.37463e-07
-1.2148e-07
-3.18067e-07
-1.22821e-07
-2.98517e-07
-1.23497e-07
-2.78914e-07
-1.23497e-07
-2.59359e-07
-1.22815e-07
-2.39955e-07
-1.21452e-07
-2.20803e-07
-1.19414e-07
-2.02002e-07
-1.16712e-07
-1.8365e-07
-1.13363e-07
-1.65841e-07
-1.09394e-07
-1.48664e-07
-1.04833e-07
-1.32202e-07
-9.97183e-08
-1.16535e-07
-9.40934e-08
-1.01733e-07
-8.80084e-08
-8.78576e-08
-8.15204e-08
-7.49638e-08
-7.46934e-08
-6.3095e-08
-6.75982e-08
-5.22843e-08
-6.03131e-08
-4.25536e-08
-5.29241e-08
-3.39124e-08
-4.5525e-08
-2.63577e-08
-3.82184e-08
-1.98729e-08
-3.11162e-08
-1.44281e-08
-2.43404e-08
-9.97923e-09
-1.80242e-08
-6.46828e-09
-1.23132e-08
-3.82321e-09
-7.36703e-09
-1.95829e-09
-3.36123e-09
-7.74782e-10
-4.88521e-10
-1.62126e-10
1.0391e-09
9.75251e-10
-7.26903e-10
2.31918e-09
-2.85388e-09
8.33675e-09
-6.33488e-09
1.53421e-08
-1.11269e-08
2.30217e-08
-1.71869e-08
3.11215e-08
-2.44696e-08
3.94267e-08
-3.29271e-08
4.77591e-08
-4.25075e-08
5.59732e-08
-5.31555e-08
6.39522e-08
-6.4812e-08
7.16042e-08
-7.7415e-08
7.88587e-08
-9.08998e-08
8.56629e-08
-1.052e-07
9.1979e-08
-1.20246e-07
9.77819e-08
-1.3597e-07
1.03056e-07
-1.52301e-07
1.07795e-07
-1.6917e-07
1.11997e-07
-1.86507e-07
1.15667e-07
-2.04244e-07
1.18812e-07
-2.22311e-07
1.21442e-07
-2.40643e-07
1.23568e-07
-2.59172e-07
1.25202e-07
-2.77834e-07
1.26357e-07
-2.96565e-07
1.27044e-07
-3.15301e-07
1.27276e-07
-3.33982e-07
1.27063e-07
-3.52544e-07
1.26414e-07
-3.7093e-07
1.25338e-07
-3.89078e-07
1.23842e-07
-4.06931e-07
1.21933e-07
-4.24431e-07
1.19616e-07
-4.41519e-07
1.16897e-07
-4.58139e-07
1.13778e-07
-4.74235e-07
1.10264e-07
-4.89751e-07
1.06359e-07
-5.04631e-07
1.02067e-07
-5.18822e-07
9.73918e-08
-5.32271e-07
9.23382e-08
-5.44924e-07
8.69123e-08
-5.5673e-07
8.11212e-08
-5.6764e-07
7.49736e-08
-5.77605e-07
6.84796e-08
-5.86579e-07
6.16515e-08
-5.94518e-07
5.45037e-08
-6.0138e-07
4.70528e-08
-6.07127e-07
3.93179e-08
-6.11722e-07
3.13209e-08
-6.15132e-07
2.30861e-08
-6.17331e-07
1.46407e-08
-6.18293e-07
6.01474e-09
-6.17998e-07
-2.75913e-09
-6.16432e-07
-1.16454e-08
-6.13585e-07
-2.06061e-08
-6.09452e-07
-2.96007e-08
-6.04035e-07
-3.85862e-08
-5.97341e-07
-4.75178e-08
-5.89385e-07
-5.63487e-08
-5.80187e-07
-6.50305e-08
-5.69773e-07
-7.35138e-08
-5.58177e-07
-8.17481e-08
-5.4544e-07