/*--------------------------------*- C++ -*----------------------------------*\
| =========                 |                                                 |
| \\      /  F ield         | OpenFOAM: The Open Source CFD Toolbox           |
|  \\    /   O peration     | Version:  2512                                  |
|   \\  /    A nd           | Website:  www.openfoam.com                      |
|    \\/     M anipulation  |                                                 |
\*---------------------------------------------------------------------------*/
FoamFile
{
    version     2.0;
    format      ascii;
    arch        "LSB;label=32;scalar=64";
    class       volVectorField;
    location    "0.48";
    object      U;
}
// * * * * * * * * * * * * * * * * * * * * * * * * * * * * * * * * * * * * * //

dimensions      [0 1 -1 0 0 0 0];

internalField   nonuniform List<vector> 
10000
(
(3.47645e-06 -3.46772e-06 0)
(1.54317e-05 -7.63999e-06 0)
(3.24921e-05 -8.05157e-06 0)
(4.64987e-05 -6.17298e-06 0)
(5.29051e-05 -3.21478e-06 0)
(4.9783e-05 1.709e-07 0)
(3.63568e-05 3.64156e-06 0)
(1.2488e-05 7.01699e-06 0)
(-2.15637e-05 1.0206e-05 0)
(-6.53027e-05 1.31637e-05 0)
(-0.000118098 1.58711e-05 0)
(-0.00017925 1.83236e-05 0)
(-0.000248031 2.05238e-05 0)
(-0.000323702 2.24821e-05 0)
(-0.000405541 2.42101e-05 0)
(-0.000492849 2.57203e-05 0)
(-0.000584952 2.70272e-05 0)
(-0.000681212 2.81449e-05 0)
(-0.000781028 2.90857e-05 0)
(-0.000883831 2.98628e-05 0)
(-0.000989085 3.04883e-05 0)
(-0.00109629 3.09724e-05 0)
(-0.00120497 3.13243e-05 0)
(-0.00131468 3.15531e-05 0)
(-0.00142499 3.16658e-05 0)
(-0.00153551 3.16684e-05 0)
(-0.00164584 3.15656e-05 0)
(-0.00175562 3.13613e-05 0)
(-0.00186448 3.10582e-05 0)
(-0.00197207 3.06585e-05 0)
(-0.00207805 3.01636e-05 0)
(-0.00218207 2.95736e-05 0)
(-0.00228379 2.88887e-05 0)
(-0.00238288 2.81084e-05 0)
(-0.00247898 2.72317e-05 0)
(-0.00257177 2.62578e-05 0)
(-0.0026609 2.51857e-05 0)
(-0.00274602 2.40144e-05 0)
(-0.00282678 2.27428e-05 0)
(-0.00290284 2.137e-05 0)
(-0.00297386 1.98962e-05 0)
(-0.0030395 1.83221e-05 0)
(-0.0030994 1.66482e-05 0)
(-0.00315325 1.48766e-05 0)
(-0.00320072 1.30092e-05 0)
(-0.0032415 1.10495e-05 0)
(-0.00327529 9.00224e-06 0)
(-0.00330181 6.87271e-06 0)
(-0.00332082 4.66696e-06 0)
(-0.00333206 2.39253e-06 0)
(-0.00333535 5.78612e-08 0)
(-0.00333052 -2.32717e-06 0)
(-0.00331741 -4.75132e-06 0)
(-0.00329594 -7.20303e-06 0)
(-0.00326605 -9.66976e-06 0)
(-0.00322773 -1.21374e-05 0)
(-0.00318102 -1.45913e-05 0)
(-0.00312599 -1.70161e-05 0)
(-0.00306281 -1.93952e-05 0)
(-0.00299164 -2.17121e-05 0)
(-0.00291276 -2.39505e-05 0)
(-0.00282646 -2.60927e-05 0)
(-0.0027331 -2.81211e-05 0)
(-0.00263311 -3.00189e-05 0)
(-0.00252695 -3.17696e-05 0)
(-0.00241515 -3.3357e-05 0)
(-0.0022983 -3.47657e-05 0)
(-0.00217701 -3.59816e-05 0)
(-0.00205196 -3.69914e-05 0)
(-0.00192385 -3.77829e-05 0)
(-0.00179344 -3.83458e-05 0)
(-0.0016615 -3.86719e-05 0)
(-0.00152883 -3.87541e-05 0)
(-0.00139625 -3.85873e-05 0)
(-0.0012646 -3.81686e-05 0)
(-0.00113471 -3.74973e-05 0)
(-0.00100741 -3.65745e-05 0)
(-0.000883532 -3.54037e-05 0)
(-0.000763889 -3.39906e-05 0)
(-0.000649264 -3.23433e-05 0)
(-0.000540413 -3.04716e-05 0)
(-0.000438053 -2.83874e-05 0)
(-0.000342853 -2.61048e-05 0)
(-0.000255432 -2.36402e-05 0)
(-0.000176346 -2.10118e-05 0)
(-0.000106084 -1.82399e-05 0)
(-4.50565e-05 -1.53474e-05 0)
(6.41432e-06 -1.236e-05 0)
(4.81038e-05 -9.30718e-06 0)
(7.99023e-05 -6.22315e-06 0)
(0.000101835 -3.14993e-06 0)
(0.000114087 -1.40406e-07 0)
(0.000117046 2.7352e-06 0)
(0.000111358 5.37802e-06 0)
(9.80223e-05 7.64045e-06 0)
(7.8527e-05 9.29624e-06 0)
(5.50222e-05 9.99765e-06 0)
(3.06326e-05 9.19848e-06 0)
(1.03513e-05 6.15029e-06 0)
(1.0106e-06 1.01623e-06 0)
(7.64734e-06 -1.54321e-05 0)
(2.89415e-05 -2.88999e-05 0)
(5.39559e-05 -2.74816e-05 0)
(6.87319e-05 -1.65261e-05 0)
(6.46466e-05 -2.25455e-07 0)
(3.71889e-05 1.87494e-05 0)
(-1.59805e-05 3.87365e-05 0)
(-9.5718e-05 5.87052e-05 0)
(-0.000201837 7.80258e-05 0)
(-0.000333454 9.63231e-05 0)
(-0.000489243 0.000113377 0)
(-0.000667604 0.000129072 0)
(-0.000866778 0.00014336 0)
(-0.00108493 0.000156237 0)
(-0.00132021 0.000167729 0)
(-0.00157077 0.000177883 0)
(-0.00183484 0.000186754 0)
(-0.00211069 0.000194405 0)
(-0.00239666 0.000200901 0)
(-0.00269118 0.000206309 0)
(-0.00299275 0.000210689 0)
(-0.00329994 0.000214102 0)
(-0.00361141 0.0002166 0)
(-0.00392586 0.000218234 0)
(-0.00424208 0.000219044 0)
(-0.00455888 0.000219068 0)
(-0.00487515 0.000218336 0)
(-0.00518978 0.000216873 0)
(-0.00550173 0.000214699 0)
(-0.00580994 0.000211827 0)
(-0.00611341 0.000208268 0)
(-0.00641114 0.000204028 0)
(-0.00670211 0.000199111 0)
(-0.00698535 0.000193516 0)
(-0.00725986 0.000187243 0)
(-0.00752466 0.000180289 0)
(-0.00777876 0.000172652 0)
(-0.00802116 0.00016433 0)
(-0.00825089 0.000155324 0)
(-0.00846696 0.000145632 0)
(-0.0086684 0.00013526 0)
(-0.00885424 0.000124216 0)
(-0.00902355 0.000112511 0)
(-0.00917539 0.000100161 0)
(-0.00930887 8.71874e-05 0)
(-0.00942315 7.36166e-05 0)
(-0.0095174 5.94823e-05 0)
(-0.00959089 4.48237e-05 0)
(-0.0096429 2.96863e-05 0)
(-0.00967284 1.41227e-05 0)
(-0.00968015 -1.80703e-06 0)
(-0.00966438 -1.80367e-05 0)
(-0.0096252 -3.44924e-05 0)
(-0.00956236 -5.10945e-05 0)
(-0.00947575 -6.77577e-05 0)
(-0.00936536 -8.43903e-05 0)
(-0.00923134 -0.000100895 0)
(-0.00907397 -0.000117171 0)
(-0.00889366 -0.000133113 0)
(-0.00869099 -0.000148612 0)
(-0.00846668 -0.00016356 0)
(-0.00822161 -0.000177846 0)
(-0.0079568 -0.000191359 0)
(-0.00767344 -0.00020399 0)
(-0.00737287 -0.000215633 0)
(-0.00705655 -0.000226186 0)
(-0.00672611 -0.000235551 0)
(-0.00638327 -0.000243637 0)
(-0.00602992 -0.000250363 0)
(-0.00566802 -0.000255652 0)
(-0.00529963 -0.000259441 0)
(-0.00492691 -0.000261675 0)
(-0.00455206 -0.000262313 0)
(-0.00417736 -0.000261324 0)
(-0.00380509 -0.000258692 0)
(-0.00343756 -0.000254415 0)
(-0.00307706 -0.000248502 0)
(-0.00272587 -0.00024098 0)
(-0.0023862 -0.000231888 0)
(-0.00206022 -0.000221282 0)
(-0.00174997 -0.000209229 0)
(-0.00145743 -0.000195815 0)
(-0.00118441 -0.000181137 0)
(-0.000932578 -0.000165308 0)
(-0.00070343 -0.000148458 0)
(-0.000498258 -0.000130733 0)
(-0.000318129 -0.000112298 0)
(-0.000163854 -9.33399e-05 0)
(-3.59518e-05 -7.40721e-05 0)
(6.53945e-05 -5.47443e-05 0)
(0.000140391 -3.56531e-05 0)
(0.000189705 -1.71603e-05 0)
(0.000214563 2.7934e-07 0)
(0.000216874 1.60746e-05 0)
(0.000199413 2.94334e-05 0)
(0.000166042 3.92787e-05 0)
(0.0001219 4.41533e-05 0)
(7.36529e-05 4.21126e-05 0)
(3.08291e-05 3.08903e-05 0)
(6.10788e-06 1.03256e-05 0)
(8.10089e-06 -3.25468e-05 0)
(2.76764e-05 -5.39735e-05 0)
(4.44931e-05 -4.42453e-05 0)
(4.25386e-05 -1.40319e-05 0)
(1.16214e-05 2.87407e-05 0)
(-5.40941e-05 7.84774e-05 0)
(-0.000157926 0.00013133 0)
(-0.0003013 0.000184714 0)
(-0.000484205 0.000236919 0)
(-0.000705617 0.000286832 0)
(-0.00096381 0.000333752 0)
(-0.00125659 0.000377261 0)
(-0.00158148 0.000417138 0)
(-0.00193581 0.000453296 0)
(-0.00231686 0.000485743 0)
(-0.00272188 0.000514551 0)
(-0.00314816 0.000539832 0)
(-0.00359306 0.000561725 0)
(-0.00405402 0.000580383 0)
(-0.00452859 0.000595963 0)
(-0.00501439 0.00060862 0)
(-0.00550919 0.000618503 0)
(-0.00601082 0.000625751 0)
(-0.00651723 0.000630491 0)
(-0.00702643 0.000632834 0)
(-0.00753653 0.00063288 0)
(-0.00804569 0.00063071 0)
(-0.00855214 0.000626395 0)
(-0.00905415 0.000619988 0)
(-0.00955003 0.000611533 0)
(-0.0100381 0.000601059 0)
(-0.0105168 0.000588588 0)
(-0.0109844 0.000574134 0)
(-0.0114393 0.000557703 0)
(-0.01188 0.000539296 0)
(-0.0123048 0.000518915 0)
(-0.0127121 0.000496558 0)
(-0.0131004 0.000472229 0)
(-0.0134681 0.000445931 0)
(-0.0138136 0.000417675 0)
(-0.0141353 0.000387481 0)
(-0.0144318 0.000355377 0)
(-0.0147015 0.000321402 0)
(-0.0149431 0.00028561 0)
(-0.015155 0.000248067 0)
(-0.0153359 0.000208856 0)
(-0.0154847 0.000168075 0)
(-0.0156002 0.000125841 0)
(-0.0156812 8.22901e-05 0)
(-0.0157268 3.75744e-05 0)
(-0.0157363 -8.13259e-06 0)
(-0.0157089 -5.46399e-05 0)
(-0.0156441 -0.000101739 0)
(-0.0155417 -0.000149202 0)
(-0.0154014 -0.000196785 0)
(-0.0152233 -0.00024423 0)
(-0.0150077 -0.000291263 0)
(-0.014755 -0.000337601 0)
(-0.0144659 -0.000382949 0)
(-0.0141415 -0.000427005 0)
(-0.0137827 -0.000469462 0)
(-0.0133911 -0.000510013 0)
(-0.0129683 -0.000548351 0)
(-0.0125162 -0.000584173 0)
(-0.0120368 -0.000617185 0)
(-0.0115326 -0.000647104 0)
(-0.011006 -0.000673661 0)
(-0.0104598 -0.000696605 0)
(-0.00989694 -0.000715708 0)
(-0.00932049 -0.000730764 0)
(-0.0087337 -0.000741596 0)
(-0.00813993 -0.000748057 0)
(-0.00754264 -0.000750033 0)
(-0.00694537 -0.000747443 0)
(-0.00635169 -0.000740245 0)
(-0.0057652 -0.000728434 0)
(-0.00518948 -0.000712044 0)
(-0.00462806 -0.000691151 0)
(-0.00408441 -0.000665871 0)
(-0.00356187 -0.000636361 0)
(-0.00306365 -0.00060282 0)
(-0.00259277 -0.000565492 0)
(-0.00215205 -0.000524659 0)
(-0.00174407 -0.000480651 0)
(-0.00137111 -0.000433843 0)
(-0.00103514 -0.000384661 0)
(-0.000737756 -0.000333586 0)
(-0.000480156 -0.000281165 0)
(-0.000263064 -0.00022802 0)
(-8.66736e-05 -0.000174876 0)
(4.94337e-05 -0.000122579 0)
(0.000146384 -7.21445e-05 0)
(0.000206134 -2.48104e-05 0)
(0.000231623 1.78797e-05 0)
(0.000226965 5.39739e-05 0)
(0.000197671 8.09935e-05 0)
(0.000150754 9.58315e-05 0)
(9.48611e-05 9.47353e-05 0)
(4.20532e-05 7.36845e-05 0)
(9.12304e-06 3.05095e-05 0)
(6.31392e-06 -4.67539e-05 0)
(1.69417e-05 -6.89579e-05 0)
(1.45346e-05 -4.23555e-05 0)
(-1.63427e-05 1.67253e-05 0)
(-8.59778e-05 9.65364e-05 0)
(-0.000200665 0.000188402 0)
(-0.000364118 0.000286056 0)
(-0.000578003 0.000385081 0)
(-0.000842383 0.000482413 0)
(-0.00115613 0.000575966 0)
(-0.00151723 0.000664358 0)
(-0.00192308 0.000746714 0)
(-0.00237065 0.000822524 0)
(-0.00285667 0.00089154 0)
(-0.00337771 0.000953698 0)
(-0.0039303 0.00100907 0)
(-0.00451096 0.0010578 0)
(-0.00511629 0.00110012 0)
(-0.00574294 0.00113627 0)
(-0.0063877 0.00116651 0)
(-0.00704745 0.00119112 0)
(-0.00771918 0.00121035 0)
(-0.00840001 0.00122445 0)
(-0.00908718 0.00123365 0)
(-0.00977801 0.00123815 0)
(-0.0104699 0.00123814 0)
(-0.0111604 0.00123376 0)
(-0.0118471 0.00122514 0)
(-0.0125276 0.00121239 0)
(-0.0131996 0.0011956 0)
(-0.0138609 0.00117482 0)
(-0.0145091 0.0011501 0)
(-0.0151421 0.00112147 0)
(-0.0157576 0.00108895 0)
(-0.0163536 0.00105255 0)
(-0.0169278 0.00101228 0)
(-0.017478 0.000968146 0)
(-0.0180022 0.000920162 0)
(-0.0184982 0.000868347 0)
(-0.0189638 0.000812734 0)
(-0.0193971 0.000753368 0)
(-0.0197959 0.000690313 0)
(-0.0201583 0.000623657 0)
(-0.0204824 0.00055351 0)
(-0.0207664 0.00048001 0)
(-0.0210084 0.000403325 0)
(-0.0212068 0.000323655 0)
(-0.0213601 0.000241229 0)
(-0.0214669 0.000156317 0)
(-0.021526 6.92204e-05 0)
(-0.0215363 -1.9725e-05 0)
(-0.021497 -0.000110147 0)
(-0.0214076 -0.000201638 0)
(-0.0212674 -0.000293762 0)
(-0.0210765 -0.000386047 0)
(-0.020835 -0.000477996 0)
(-0.0205431 -0.000569086 0)
(-0.0202016 -0.000658771 0)
(-0.0198114 -0.000746489 0)
(-0.0193739 -0.000831664 0)
(-0.0188906 -0.000913713 0)
(-0.0183634 -0.000992049 0)
(-0.0177945 -0.00106609 0)
(-0.0171865 -0.00113526 0)
(-0.0165421 -0.001199 0)
(-0.0158644 -0.00125677 0)
(-0.0151569 -0.00130808 0)
(-0.0144231 -0.00135243 0)
(-0.013667 -0.00138941 0)
(-0.0128926 -0.00141862 0)
(-0.0121043 -0.00143973 0)
(-0.0113063 -0.00145247 0)
(-0.0105034 -0.00145661 0)
(-0.00970022 -0.00145202 0)
(-0.00890141 -0.00143861 0)
(-0.00811172 -0.00141638 0)
(-0.00733589 -0.0013854 0)
(-0.00657855 -0.00134582 0)
(-0.00584426 -0.00129787 0)
(-0.00513742 -0.00124185 0)
(-0.00446222 -0.00117815 0)
(-0.00382264 -0.00110725 0)
(-0.00322235 -0.0010297 0)
(-0.00266473 -0.000946136 0)
(-0.00215273 -0.0008573 0)
(-0.00168891 -0.00076402 0)
(-0.00127532 -0.000667236 0)
(-0.000913468 -0.000568012 0)
(-0.000604246 -0.000467562 0)
(-0.000347849 -0.000367273 0)
(-0.000143682 -0.000268761 0)
(9.74566e-06 -0.000173925 0)
(0.000114947 -8.50313e-05 0)
(0.000175611 -4.821e-06 0)
(0.000196772 6.33642e-05 0)
(0.000185006 0.000115447 0)
(0.000148484 0.000146512 0)
(9.70781e-05 0.000150829 0)
(4.4448e-05 0.000122182 0)
(9.94722e-06 5.4845e-05 0)
(3.43041e-06 -5.34832e-05 0)
(7.06608e-07 -6.50926e-05 0)
(-2.85093e-05 -1.13361e-05 0)
(-9.70497e-05 8.64825e-05 0)
(-0.000214201 0.000213063 0)
(-0.000386093 0.000356811 0)
(-0.000616341 0.000509099 0)
(-0.000906528 0.000663635 0)
(-0.00125661 0.000815908 0)
(-0.00166529 0.000962739 0)
(-0.0021303 0.00110195 0)
(-0.00264868 0.00123209 0)
(-0.00321699 0.00135228 0)
(-0.00383144 0.00146204 0)
(-0.00448806 0.00156117 0)
(-0.00518277 0.0016497 0)
(-0.00591147 0.00172781 0)
(-0.0066701 0.00179577 0)
(-0.00745467 0.00185393 0)
(-0.00826127 0.00190265 0)
(-0.00908613 0.00194232 0)
(-0.00992557 0.00197333 0)
(-0.0107761 0.00199604 0)
(-0.0116342 0.00201079 0)
(-0.0124967 0.00201789 0)
(-0.0133603 0.00201762 0)
(-0.014222 0.00201021 0)
(-0.0150786 0.00199586 0)
(-0.0159273 0.00197475 0)
(-0.0167652 0.00194699 0)
(-0.0175893 0.0019127 0)
(-0.018397 0.00187195 0)
(-0.0191854 0.0018248 0)
(-0.0199518 0.00177128 0)
(-0.0206935 0.00171142 0)
(-0.0214077 0.00164526 0)
(-0.0220917 0.00157281 0)
(-0.022743 0.00149411 0)
(-0.0233588 0.00140919 0)
(-0.0239366 0.00131814 0)
(-0.0244737 0.00122102 0)
(-0.0249678 0.00111797 0)
(-0.0254164 0.00100914 0)
(-0.0258171 0.000894705 0)
(-0.0261676 0.000774913 0)
(-0.0264659 0.000650043 0)
(-0.0267099 0.000520425 0)
(-0.0268978 0.000386443 0)
(-0.027028 0.000248535 0)
(-0.027099 0.000107193 0)
(-0.0271095 -3.70338e-05 0)
(-0.0270586 -0.000183544 0)
(-0.0269455 -0.000331681 0)
(-0.0267698 -0.000480738 0)
(-0.0265314 -0.000629962 0)
(-0.0262304 -0.000778552 0)
(-0.0258674 -0.000925671 0)
(-0.0254431 -0.00107045 0)
(-0.0249589 -0.00121199 0)
(-0.0244164 -0.00134937 0)
(-0.0238174 -0.00148167 0)
(-0.0231644 -0.00160795 0)
(-0.0224601 -0.00172728 0)
(-0.0217075 -0.00183877 0)
(-0.0209101 -0.00194151 0)
(-0.0200718 -0.00203467 0)
(-0.0191966 -0.00211743 0)
(-0.018289 -0.00218906 0)
(-0.0173537 -0.00224886 0)
(-0.0163957 -0.00229622 0)
(-0.0154201 -0.00233063 0)
(-0.0144325 -0.00235164 0)
(-0.0134384 -0.00235892 0)
(-0.0124433 -0.00235224 0)
(-0.0114531 -0.00233148 0)
(-0.0104735 -0.00229664 0)
(-0.00951023 -0.00224784 0)
(-0.00856889 -0.00218533 0)
(-0.00765501 -0.00210946 0)
(-0.00677393 -0.00202075 0)
(-0.00593072 -0.00191982 0)
(-0.0051302 -0.00180743 0)
(-0.00437681 -0.00168448 0)
(-0.0036746 -0.00155202 0)
(-0.00302715 -0.00141123 0)
(-0.00243752 -0.00126345 0)
(-0.00190816 -0.00111021 0)
(-0.00144086 -0.000953216 0)
(-0.00103669 -0.000794409 0)
(-0.000695853 -0.000635999 0)
(-0.000417655 -0.00048052 0)
(-0.000200355 -0.000330914 0)
(-4.10616e-05 -0.000190621 0)
(6.44056e-05 -6.37092e-05 0)
(0.000121669 4.49936e-05 0)
(0.00013795 0.000129746 0)
(0.000122116 0.000183776 0)
(8.48014e-05 0.000199264 0)
(4.04829e-05 0.000167465 0)
(9.3721e-06 7.85804e-05 0)
(6.57156e-08 -5.06888e-05 0)
(-1.85519e-05 -3.74946e-05 0)
(-7.95012e-05 5.52764e-05 0)
(-0.000191733 0.000202431 0)
(-0.000362745 0.00038559 0)
(-0.000597998 0.000590561 0)
(-0.000900608 0.000806524 0)
(-0.00127177 0.0010254 0)
(-0.00171115 0.00124123 0)
(-0.00221715 0.00144971 0)
(-0.00278722 0.00164781 0)
(-0.00341806 0.00183347 0)
(-0.00410585 0.00200535 0)
(-0.00484637 0.00216267 0)
(-0.00563518 0.00230508 0)
(-0.00646771 0.00243254 0)
(-0.00733931 0.00254519 0)
(-0.00824538 0.00264337 0)
(-0.00918134 0.00272748 0)
(-0.0101427 0.00279801 0)
(-0.0111252 0.00285547 0)
(-0.0121244 0.00290034 0)
(-0.0131363 0.00293314 0)
(-0.0141569 0.00295431 0)
(-0.0151823 0.00296428 0)
(-0.0162088 0.00296343 0)
(-0.0172325 0.00295208 0)
(-0.0182501 0.00293053 0)
(-0.0192579 0.00289899 0)
(-0.0202526 0.00285767 0)
(-0.0212307 0.0028067 0)
(-0.0221889 0.00274622 0)
(-0.0231239 0.0026763 0)
(-0.0240325 0.00259702 0)
(-0.0249114 0.00250842 0)
(-0.0257574 0.00241056 0)
(-0.0265673 0.00230349 0)
(-0.027338 0.00218727 0)
(-0.0280664 0.00206198 0)
(-0.0287494 0.00192773 0)
(-0.029384 0.00178467 0)
(-0.0299674 0.00163299 0)
(-0.0304965 0.00147292 0)
(-0.0309688 0.00130476 0)
(-0.0313815 0.00112887 0)
(-0.0317323 0.000945663 0)
(-0.0320188 0.000755641 0)
(-0.032239 0.00055937 0)
(-0.0323908 0.000357498 0)
(-0.0324727 0.000150746 0)
(-0.0324832 -6.00813e-05 0)
(-0.0324213 -0.000274106 0)
(-0.0322861 -0.000490373 0)
(-0.0320771 -0.000707857 0)
(-0.0317943 -0.000925463 0)
(-0.0314379 -0.00114204 0)
(-0.0310085 -0.00135637 0)
(-0.0305072 -0.00156721 0)
(-0.0299355 -0.00177325 0)
(-0.0292951 -0.00197319 0)
(-0.0285886 -0.00216569 0)
(-0.0278186 -0.0023494 0)
(-0.0269882 -0.00252301 0)
(-0.0261012 -0.00268521 0)
(-0.0251615 -0.00283473 0)
(-0.0241736 -0.00297035 0)
(-0.0231423 -0.00309093 0)
(-0.0220727 -0.0031954 0)
(-0.0209703 -0.00328278 0)
(-0.0198409 -0.00335219 0)
(-0.0186906 -0.0034029 0)
(-0.0175256 -0.00343428 0)
(-0.0163523 -0.00344586 0)
(-0.0151773 -0.00343731 0)
(-0.0140072 -0.00340846 0)
(-0.0128487 -0.00335933 0)
(-0.0117084 -0.00329008 0)
(-0.0105928 -0.00320109 0)
(-0.00950835 -0.00309288 0)
(-0.00846114 -0.00296619 0)
(-0.00745709 -0.00282192 0)
(-0.00650174 -0.0026612 0)
(-0.00560022 -0.00248533 0)
(-0.00475723 -0.00229583 0)
(-0.00397687 -0.00209441 0)
(-0.00326268 -0.00188304 0)
(-0.00261748 -0.00166391 0)
(-0.00204336 -0.0014395 0)
(-0.00154155 -0.00121258 0)
(-0.00111233 -0.000986305 0)
(-0.00075498 -0.000764248 0)
(-0.000467629 -0.000550495 0)
(-0.000247176 -0.000349761 0)
(-8.91599e-05 -0.000167509 0)
(1.23641e-05 -1.01057e-05 0)
(6.49585e-05 0.000115022 0)
(7.78518e-05 0.000199226 0)
(6.20741e-05 0.000232556 0)
(3.22288e-05 0.000203669 0)
(7.97031e-06 9.8925e-05 0)
(-3.46712e-06 -3.7368e-05 0)
(-3.93246e-05 1.67738e-05 0)
(-0.000135 0.000161752 0)
(-0.000294871 0.000369555 0)
(-0.000524121 0.000619334 0)
(-0.000827161 0.000894688 0)
(-0.00120629 0.00118287 0)
(-0.00166204 0.00147417 0)
(-0.00219359 0.00176127 0)
(-0.00279895 0.00203878 0)
(-0.00347517 0.00230282 0)
(-0.0042186 0.00255067 0)
(-0.00502503 0.00278053 0)
(-0.00588986 0.0029913 0)
(-0.00680824 0.00318242 0)
(-0.00777514 0.00335374 0)
(-0.00878547 0.00350538 0)
(-0.00983412 0.00363769 0)
(-0.010916 0.00375115 0)
(-0.0120262 0.00384634 0)
(-0.0131598 0.00392386 0)
(-0.0143121 0.00398435 0)
(-0.0154783 0.00402842 0)
(-0.0166539 0.00405665 0)
(-0.0178347 0.00406957 0)
(-0.0190162 0.00406768 0)
(-0.0201942 0.00405141 0)
(-0.0213647 0.00402111 0)
(-0.0225237 0.00397709 0)
(-0.0236673 0.00391962 0)
(-0.0247914 0.00384889 0)
(-0.0258924 0.00376506 0)
(-0.0269663 0.00366828 0)
(-0.0280096 0.00355862 0)
(-0.0290184 0.00343619 0)
(-0.0299891 0.00330107 0)
(-0.030918 0.00315333 0)
(-0.0318017 0.00299309 0)
(-0.0326364 0.00282048 0)
(-0.0334188 0.00263567 0)
(-0.0341454 0.00243887 0)
(-0.0348129 0.00223037 0)
(-0.0354182 0.0020105 0)
(-0.035958 0.00177968 0)
(-0.0364295 0.00153843 0)
(-0.0368299 0.00128732 0)
(-0.0371566 0.00102704 0)
(-0.0374072 0.000758395 0)
(-0.0375796 0.000482257 0)
(-0.0376721 0.000199623 0)
(-0.0376829 -8.84118e-05 0)
(-0.037611 -0.000380649 0)
(-0.0374554 -0.00067579 0)
(-0.0372157 -0.000972443 0)
(-0.0368917 -0.00126913 0)
(-0.0364838 -0.00156428 0)
(-0.0359928 -0.00185627 0)
(-0.0354198 -0.00214341 0)
(-0.0347665 -0.00242395 0)
(-0.0340351 -0.00269612 0)
(-0.0332283 -0.00295813 0)
(-0.0323491 -0.00320818 0)
(-0.0314012 -0.00344449 0)
(-0.0303887 -0.00366531 0)
(-0.029316 -0.00386894 0)
(-0.0281883 -0.00405375 0)
(-0.0270108 -0.00421821 0)
(-0.0257895 -0.00436088 0)
(-0.0245304 -0.00448045 0)
(-0.0232401 -0.00457577 0)
(-0.0219253 -0.00464583 0)
(-0.0205932 -0.0046898 0)
(-0.0192509 -0.00470706 0)
(-0.0179057 -0.00469716 0)
(-0.0165652 -0.0046599 0)
(-0.0152369 -0.00459528 0)
(-0.013928 -0.00450356 0)
(-0.0126461 -0.00438522 0)
(-0.0113982 -0.00424099 0)
(-0.0101913 -0.00407187 0)
(-0.00903191 -0.00387909 0)
(-0.00792637 -0.00366417 0)
(-0.00688042 -0.00342888 0)
(-0.0058993 -0.00317527 0)
(-0.00498767 -0.00290569 0)
(-0.0041495 -0.00262276 0)
(-0.00338798 -0.00232945 0)
(-0.0027055 -0.00202909 0)
(-0.00210347 -0.00172539 0)
(-0.00158234 -0.00142253 0)
(-0.00114143 -0.00112519 0)
(-0.000778856 -0.00083869 0)
(-0.000491452 -0.000569073 0)
(-0.000274656 -0.000323238 0)
(-0.000122408 -0.000109101 0)
(-2.7045e-05 6.42286e-05 0)
(2.07573e-05 0.00018626 0)
(3.21132e-05 0.000244963 0)
(2.11947e-05 0.000226553 0)
(6.10089e-06 0.000114109 0)
(-7.00821e-06 -1.30889e-05 0)
(-6.07124e-05 9.93558e-05 0)
(-0.000192766 0.000310729 0)
(-0.000402677 0.000591141 0)
(-0.000693013 0.000917875 0)
(-0.00106686 0.00127276 0)
(-0.00152544 0.00164142 0)
(-0.00206844 0.00201273 0)
(-0.00269434 0.00237816 0)
(-0.00340063 0.00273132 0)
(-0.00418389 0.0030675 0)
(-0.00504006 0.00338337 0)
(-0.00596453 0.00367665 0)
(-0.00695231 0.00394592 0)
(-0.00799816 0.00419039 0)
(-0.00909664 0.00440979 0)
(-0.0102422 0.0046042 0)
(-0.0114295 0.00477397 0)
(-0.0126528 0.00491963 0)
(-0.0139067 0.00504184 0)
(-0.015186 0.00514131 0)
(-0.0164854 0.0052188 0)
(-0.0177998 0.00527504 0)
(-0.0191241 0.00531072 0)
(-0.0204536 0.00532651 0)
(-0.0217834 0.00532299 0)
(-0.0231089 0.00530069 0)
(-0.0244255 0.00526007 0)
(-0.0257287 0.00520151 0)
(-0.0270141 0.00512534 0)
(-0.0282774 0.00503182 0)
(-0.0295144 0.00492116 0)
(-0.0307206 0.00479354 0)
(-0.031892 0.00464909 0)
(-0.0330245 0.00448795 0)
(-0.0341138 0.00431024 0)
(-0.035156 0.00411609 0)
(-0.036147 0.00390565 0)
(-0.0370829 0.00367913 0)
(-0.0379598 0.00343675 0)
(-0.038774 0.00317884 0)
(-0.0395217 0.00290577 0)
(-0.0401994 0.002618 0)
(-0.0408037 0.00231611 0)
(-0.0413313 0.00200077 0)
(-0.0417791 0.00167275 0)
(-0.0421444 0.00133298 0)
(-0.0424246 0.000982471 0)
(-0.0426172 0.000622402 0)
(-0.0427204 0.000254063 0)
(-0.0427324 -0.000121119 0)
(-0.0426519 -0.000501589 0)
(-0.042478 -0.000885667 0)
(-0.0422102 -0.00127155 0)
(-0.0418484 -0.00165733 0)
(-0.0413929 -0.00204099 0)
(-0.0408447 -0.00242043 0)
(-0.0402051 -0.00279348 0)
(-0.0394759 -0.00315789 0)
(-0.0386597 -0.00351139 0)
(-0.0377592 -0.00385169 0)
(-0.0367781 -0.00417646 0)
(-0.0357201 -0.00448345 0)
(-0.03459 -0.0047704 0)
(-0.0333926 -0.00503514 0)
(-0.0321334 -0.00527559 0)
(-0.0308184 -0.00548977 0)
(-0.0294541 -0.00567586 0)
(-0.0280471 -0.00583219 0)
(-0.0266047 -0.00595727 0)
(-0.0251343 -0.00604981 0)
(-0.0236436 -0.00610877 0)
(-0.0221406 -0.00613333 0)
(-0.0206334 -0.00612295 0)
(-0.0191301 -0.00607735 0)
(-0.0176391 -0.00599655 0)
(-0.0161685 -0.00588088 0)
(-0.0147264 -0.00573096 0)
(-0.0133206 -0.00554774 0)
(-0.0119588 -0.0053325 0)
(-0.0106482 -0.00508684 0)
(-0.00939585 -0.00481272 0)
(-0.00820798 -0.00451242 0)
(-0.00709044 -0.00418859 0)
(-0.00604837 -0.00384423 0)
(-0.00508619 -0.00348274 0)
(-0.00420747 -0.00310792 0)
(-0.00341492 -0.00272401 0)
(-0.00271021 -0.00233573 0)
(-0.00209397 -0.00194834 0)
(-0.00156567 -0.00156773 0)
(-0.00112351 -0.00120046 0)
(-0.00076439 -0.000853946 0)
(-0.000483797 -0.000536534 0)
(-0.000275726 -0.000257682 0)
(-0.000132602 -2.81429e-05 0)
(-4.52263e-05 0.000139821 0)
(-2.65463e-06 0.000232244 0)
(8.44469e-06 0.000233164 0)
(3.98886e-06 0.000123036 0)
(-1.04813e-05 2.22443e-05 0)
(-8.21879e-05 0.000211 0)
(-0.000251365 0.000503645 0)
(-0.0005126 0.000869156 0)
(-0.0008657 0.0012835 0)
(-0.00131225 0.00172715 0)
(-0.00185221 0.00218446 0)
(-0.00248425 0.00264309 0)
(-0.00320602 0.00309348 0)
(-0.00401434 0.00352836 0)
(-0.00490527 0.00394229 0)
(-0.00587424 0.00433135 0)
(-0.00691622 0.00469282 0)
(-0.00802582 0.00502497 0)
(-0.0091974 0.00532678 0)
(-0.0104251 0.00559786 0)
(-0.0117032 0.00583823 0)
(-0.0130255 0.00604824 0)
(-0.0143864 0.00622846 0)
(-0.0157798 0.00637964 0)
(-0.0172001 0.00650258 0)
(-0.0186417 0.00659814 0)
(-0.0200989 0.00666717 0)
(-0.0215665 0.00671048 0)
(-0.023039 0.00672886 0)
(-0.0245113 0.00672299 0)
(-0.0259782 0.0066935 0)
(-0.0274349 0.00664094 0)
(-0.0288763 0.00656578 0)
(-0.0302977 0.00646841 0)
(-0.0316943 0.00634915 0)
(-0.0330613 0.00620826 0)
(-0.0343942 0.00604598 0)
(-0.0356882 0.0058625 0)
(-0.0369389 0.00565798 0)
(-0.0381418 0.0054326 0)
(-0.0392923 0.00518655 0)
(-0.0403862 0.00492004 0)
(-0.041419 0.00463334 0)
(-0.0423865 0.00432678 0)
(-0.0432847 0.00400077 0)
(-0.0441094 0.0036558 0)
(-0.0448568 0.0032925 0)
(-0.0455232 0.00291158 0)
(-0.0461051 0.00251392 0)
(-0.0465991 0.00210051 0)
(-0.0470022 0.00167251 0)
(-0.0473115 0.00123122 0)
(-0.0475246 0.000778117 0)
(-0.0476393 0.000314826 0)
(-0.0476537 -0.000156865 0)
(-0.0475665 -0.000635007 0)
(-0.0473766 -0.0011175 0)
(-0.0470836 -0.0016021 0)
(-0.0466873 -0.00208642 0)
(-0.0461882 -0.00256796 0)
(-0.0455872 -0.00304411 0)
(-0.0448859 -0.00351216 0)
(-0.0440863 -0.00396934 0)
(-0.0431909 -0.00441282 0)
(-0.042203 -0.00483975 0)
(-0.0411263 -0.00524729 0)
(-0.0399651 -0.0056326 0)
(-0.0387243 -0.00599291 0)
(-0.0374093 -0.00632553 0)
(-0.0360261 -0.00662789 0)
(-0.0345811 -0.00689755 0)
(-0.0330812 -0.00713224 0)
(-0.0315338 -0.00732989 0)
(-0.0299466 -0.00748866 0)
(-0.0283277 -0.00760698 0)
(-0.0266855 -0.00768352 0)
(-0.0250286 -0.0077173 0)
(-0.0233658 -0.00770763 0)
(-0.0217059 -0.00765417 0)
(-0.0200579 -0.00755695 0)
(-0.0184307 -0.00741636 0)
(-0.016833 -0.0072332 0)
(-0.0152734 -0.00700863 0)
(-0.0137602 -0.00674425 0)
(-0.0123013 -0.00644206 0)
(-0.0109043 -0.00610447 0)
(-0.00957597 -0.00573432 0)
(-0.0083228 -0.00533491 0)
(-0.00715041 -0.00490996 0)
(-0.00606364 -0.00446367 0)
(-0.0050665 -0.00400073 0)
(-0.00416202 -0.00352636 0)
(-0.00335219 -0.00304634 0)
(-0.0026379 -0.00256707 0)
(-0.00201882 -0.00209564 0)
(-0.00149336 -0.00163995 0)
(-0.00105858 -0.00120877 0)
(-0.00071014 -0.000811882 0)
(-0.000442234 -0.000460268 0)
(-0.000247536 -0.00016626 0)
(-0.00011714 5.62135e-05 0)
(-4.04681e-05 0.000191432 0)
(-5.29596e-06 0.000221574 0)
(1.77104e-06 0.000125075 0)
(-1.3856e-05 6.85349e-05 0)
(-0.00010345 0.000351886 0)
(-0.000309893 0.000741102 0)
(-0.000622943 0.0012046 0)
(-0.00103961 0.0017175 0)
(-0.00155987 0.00225932 0)
(-0.00218233 0.00281342 0)
(-0.00290446 0.00336654 0)
(-0.00372302 0.00390827 0)
(-0.00463404 0.00443058 0)
(-0.00563294 0.00492742 0)
(-0.00671461 0.00539435 0)
(-0.00787356 0.00582826 0)
(-0.00910396 0.00622712 0)
(-0.0103998 0.00658974 0)
(-0.0117548 0.00691558 0)
(-0.0131628 0.00720461 0)
(-0.0146174 0.00745719 0)
(-0.0161125 0.00767393 0)
(-0.0176418 0.00785564 0)
(-0.0191991 0.00800322 0)
(-0.0207786 0.00811763 0)
(-0.0223742 0.00819983 0)
(-0.0239802 0.00825076 0)
(-0.0255908 0.0082713 0)
(-0.0272005 0.00826225 0)
(-0.0288039 0.00822433 0)
(-0.0303955 0.00815819 0)
(-0.03197 0.00806436 0)
(-0.0335222 0.00794332 0)
(-0.035047 0.00779544 0)
(-0.0365392 0.00762107 0)
(-0.0379938 0.00742046 0)
(-0.0394058 0.00719387 0)
(-0.0407703 0.00694152 0)
(-0.0420825 0.00666363 0)
(-0.0433374 0.00636047 0)
(-0.0445303 0.00603231 0)
(-0.0456566 0.0056795 0)
(-0.0467118 0.00530247 0)
(-0.0476912 0.00490174 0)
(-0.0485906 0.00447796 0)
(-0.0494059 0.00403188 0)
(-0.050133 0.00356443 0)
(-0.050768 0.00307667 0)
(-0.0513076 0.00256985 0)
(-0.0517482 0.00204539 0)
(-0.052087 0.00150489 0)
(-0.0523213 0.00095015 0)
(-0.0524487 0.000383163 0)
(-0.0524673 -0.000193891 0)
(-0.0523755 -0.000778641 0)
(-0.0521724 -0.00136854 0)
(-0.0518572 -0.00196085 0)
(-0.0514301 -0.00255269 0)
(-0.0508913 -0.00314103 0)
(-0.050242 -0.00372271 0)
(-0.0494837 -0.00429445 0)
(-0.0486186 -0.00485292 0)
(-0.0476495 -0.00539468 0)
(-0.0465798 -0.00591632 0)
(-0.0454134 -0.00641437 0)
(-0.0441551 -0.00688544 0)
(-0.0428099 -0.00732618 0)
(-0.0413837 -0.00773334 0)
(-0.0398828 -0.00810382 0)
(-0.0383142 -0.00843467 0)
(-0.0366852 -0.00872316 0)
(-0.0350036 -0.00896679 0)
(-0.0332778 -0.00916335 0)
(-0.0315164 -0.00931091 0)
(-0.0297283 -0.00940789 0)
(-0.0279229 -0.00945309 0)
(-0.0261095 -0.00944568 0)
(-0.0242976 -0.00938524 0)
(-0.0224969 -0.0092718 0)
(-0.0207169 -0.00910583 0)
(-0.0189669 -0.00888828 0)
(-0.0172563 -0.00862057 0)
(-0.0155939 -0.00830461 0)
(-0.0139884 -0.00794282 0)
(-0.0124478 -0.0075381 0)
(-0.0109796 -0.0070939 0)
(-0.00959085 -0.00661417 0)
(-0.00828757 -0.0061034 0)
(-0.00707514 -0.00556665 0)
(-0.00595799 -0.00500955 0)
(-0.00493954 -0.00443832 0)
(-0.00402215 -0.00385985 0)
(-0.00320701 -0.00328171 0)
(-0.00249411 -0.00271226 0)
(-0.00188211 -0.00216069 0)
(-0.00136836 -0.00163714 0)
(-0.000948794 -0.00115286 0)
(-0.000617906 -0.000720266 0)
(-0.000368743 -0.000353222 0)
(-0.00019283 -6.71934e-05 0)
(-8.00871e-05 0.000120537 0)
(-1.95454e-05 0.000190596 0)
(-4.71479e-07 0.000119901 0)
(-1.71181e-05 0.000125584 0)
(-0.000124329 0.000521836 0)
(-0.000367792 0.00102313 0)
(-0.000732594 0.00159776 0)
(-0.00121298 0.0022204 0)
(-0.0018073 0.00286994 0)
(-0.00251269 0.00352905 0)
(-0.0033254 0.00418378 0)
(-0.00424113 0.00482307 0)
(-0.00525508 0.00543829 0)
(-0.00636195 0.00602288 0)
(-0.00755605 0.00657199 0)
(-0.00883135 0.00708219 0)
(-0.0101816 0.00755119 0)
(-0.0116002 0.00797764 0)
(-0.0130808 0.00836089 0)
(-0.0146166 0.00870088 0)
(-0.0162011 0.00899798 0)
(-0.0178275 0.00925283 0)
(-0.0194895 0.00946631 0)
(-0.0211805 0.00963941 0)
(-0.0228941 0.0097732 0)
(-0.0246242 0.00986875 0)
(-0.0263645 0.0099271 0)
(-0.0281091 0.00994925 0)
(-0.029852 0.00993609 0)
(-0.0315874 0.00988845 0)
(-0.0333095 0.00980706 0)
(-0.0350127 0.00969253 0)
(-0.0366914 0.0095454 0)
(-0.03834 0.00936613 0)
(-0.0399533 0.0091551 0)
(-0.0415256 0.00891265 0)
(-0.0430518 0.00863907 0)
(-0.0445265 0.00833464 0)
(-0.0459445 0.00799965 0)
(-0.0473006 0.00763443 0)
(-0.0485898 0.00723932 0)
(-0.049807 0.00681479 0)
(-0.0509475 0.00636135 0)
(-0.0520063 0.00587966 0)
(-0.0529789 0.00537051 0)
(-0.0538608 0.00483484 0)
(-0.0546477 0.00427375 0)
(-0.0553356 0.00368855 0)
(-0.0559207 0.00308073 0)
(-0.0563995 0.00245201 0)
(-0.0567687 0.00180431 0)
(-0.0570255 0.00113978 0)
(-0.0571673 0.000460802 0)
(-0.0571922 -0.000230029 0)
(-0.0570985 -0.00092989 0)
(-0.056885 -0.00163575 0)
(-0.0565512 -0.00234436 0)
(-0.0560968 -0.00305232 0)
(-0.0555225 -0.00375601 0)
(-0.0548292 -0.00445171 0)
(-0.0540186 -0.00513554 0)
(-0.0530929 -0.00580352 0)
(-0.0520552 -0.00645164 0)
(-0.050909 -0.00707583 0)
(-0.0496584 -0.007672 0)
(-0.0483084 -0.00823614 0)
(-0.0468645 -0.00876429 0)