/*--------------------------------*- C++ -*----------------------------------*\
| =========                 |                                                 |
| \\      /  F ield         | OpenFOAM: The Open Source CFD Toolbox           |
|  \\    /   O peration     | Version:  2512                                  |
|   \\  /    A nd           | Website:  www.openfoam.com                      |
|    \\/     M anipulation  |                                                 |
\*---------------------------------------------------------------------------*/
FoamFile
{
    version     2.0;
    format      ascii;
    arch        "LSB;label=32;scalar=64";
    class       volVectorField;
    location    "0.2";
    object      U;
}
// * * * * * * * * * * * * * * * * * * * * * * * * * * * * * * * * * * * * * //

dimensions      [0 1 -1 0 0 0 0];

internalField   nonuniform List<vector> 
10000
(
(2.54146e-06 -3.34485e-06 0)
(1.16904e-05 -5.95987e-06 0)
(2.22049e-05 -5.15349e-06 0)
(2.90985e-05 -3.16954e-06 0)
(2.89088e-05 -6.12591e-07 0)
(2.0934e-05 2.11198e-06 0)
(4.89913e-06 4.79149e-06 0)
(-1.90562e-05 7.32022e-06 0)
(-5.05491e-05 9.6505e-06 0)
(-8.90696e-05 1.17721e-05 0)
(-0.00013405 1.36856e-05 0)
(-0.00018489 1.53932e-05 0)
(-0.000240983 1.68991e-05 0)
(-0.000301742 1.82123e-05 0)
(-0.000366598 1.93458e-05 0)
(-0.000435005 2.03134e-05 0)
(-0.000506451 2.11267e-05 0)
(-0.000580449 2.17972e-05 0)
(-0.000656545 2.2337e-05 0)
(-0.000734315 2.27557e-05 0)
(-0.000813361 2.3061e-05 0)
(-0.000893315 2.32612e-05 0)
(-0.000973831 2.33646e-05 0)
(-0.00105459 2.33796e-05 0)
(-0.00113528 2.33128e-05 0)
(-0.00121564 2.31693e-05 0)
(-0.00129539 2.29532e-05 0)
(-0.00137429 2.26689e-05 0)
(-0.0014521 2.23201e-05 0)
(-0.0015286 2.19099e-05 0)
(-0.00160358 2.14421e-05 0)
(-0.00167683 2.09199e-05 0)
(-0.00174816 2.03442e-05 0)
(-0.00181737 1.97152e-05 0)
(-0.00188429 1.90336e-05 0)
(-0.00194872 1.83005e-05 0)
(-0.00201049 1.75173e-05 0)
(-0.00206942 1.66844e-05 0)
(-0.00212534 1.58018e-05 0)
(-0.00217808 1.48695e-05 0)
(-0.00222746 1.38878e-05 0)
(-0.00227332 1.28573e-05 0)
(-0.00231549 1.17785e-05 0)
(-0.00235381 1.06518e-05 0)
(-0.00238812 9.47795e-06 0)
(-0.00241826 8.25818e-06 0)
(-0.00244409 6.99428e-06 0)
(-0.00246546 5.6881e-06 0)
(-0.00248224 4.34133e-06 0)
(-0.00249429 2.95632e-06 0)
(-0.00250151 1.53647e-06 0)
(-0.00250378 8.55224e-08 0)
(-0.00250102 -1.39251e-06 0)
(-0.00249314 -2.89322e-06 0)
(-0.00248008 -4.41182e-06 0)
(-0.00246181 -5.94295e-06 0)
(-0.00243829 -7.48074e-06 0)
(-0.00240953 -9.01886e-06 0)
(-0.00237553 -1.05502e-05 0)
(-0.00233636 -1.20667e-05 0)
(-0.00229207 -1.35605e-05 0)
(-0.00224276 -1.50237e-05 0)
(-0.00218856 -1.64483e-05 0)
(-0.00212962 -1.78257e-05 0)
(-0.00206611 -1.91466e-05 0)
(-0.00199826 -2.04011e-05 0)
(-0.00192631 -2.15795e-05 0)
(-0.00185052 -2.2673e-05 0)
(-0.00177121 -2.36729e-05 0)
(-0.0016887 -2.45704e-05 0)
(-0.00160336 -2.53568e-05 0)
(-0.00151558 -2.60235e-05 0)
(-0.00142576 -2.65626e-05 0)
(-0.00133436 -2.69664e-05 0)
(-0.00124183 -2.72281e-05 0)
(-0.00114866 -2.7342e-05 0)
(-0.00105536 -2.73028e-05 0)
(-0.000962437 -2.7106e-05 0)
(-0.000870433 -2.67472e-05 0)
(-0.000779891 -2.62226e-05 0)
(-0.000691361 -2.55296e-05 0)
(-0.000605402 -2.4667e-05 0)
(-0.00052257 -2.36347e-05 0)
(-0.000443424 -2.2433e-05 0)
(-0.000368513 -2.10626e-05 0)
(-0.00029838 -1.95252e-05 0)
(-0.000233553 -1.78235e-05 0)
(-0.000174542 -1.59612e-05 0)
(-0.000121832 -1.39437e-05 0)
(-7.58738e-05 -1.17784e-05 0)
(-3.70744e-05 -9.47672e-06 0)
(-5.77885e-06 -7.05514e-06 0)
(1.77535e-05 -4.53922e-06 0)
(3.33898e-05 -1.97068e-06 0)
(4.11909e-05 5.75432e-07 0)
(4.1518e-05 2.96403e-06 0)
(3.51949e-05 4.94972e-06 0)
(2.38487e-05 6.07407e-06 0)
(1.09336e-05 5.51327e-06 0)
(2.33828e-06 2.3404e-06 0)
(5.0038e-06 -1.14912e-05 0)
(1.8259e-05 -1.9306e-05 0)
(3.06446e-05 -1.46377e-05 0)
(3.20115e-05 -3.91133e-06 0)
(1.68156e-05 9.96833e-06 0)
(-1.74434e-05 2.51656e-05 0)
(-7.18201e-05 4.05831e-05 0)
(-0.00014636 5.55712e-05 0)
(-0.000240458 6.97552e-05 0)
(-0.000353091 8.29286e-05 0)
(-0.000482981 9.49953e-05 0)
(-0.00062871 0.000105917 0)
(-0.000788795 0.000115689 0)
(-0.000961739 0.000124334 0)
(-0.00114607 0.000131894 0)
(-0.00134034 0.000138417 0)
(-0.00154318 0.000143959 0)
(-0.00175328 0.000148578 0)
(-0.00196937 0.000152329 0)
(-0.00219028 0.00015527 0)
(-0.0024149 0.000157453 0)
(-0.00264219 0.000158926 0)
(-0.00287117 0.000159738 0)
(-0.00310091 0.000159933 0)
(-0.00333056 0.00015955 0)
(-0.0035593 0.000158625 0)
(-0.00378637 0.000157191 0)
(-0.00401105 0.000155277 0)
(-0.00423265 0.000152905 0)
(-0.00445051 0.000150098 0)
(-0.00466403 0.000146876 0)
(-0.00487261 0.000143255 0)
(-0.00507565 0.000139248 0)
(-0.00527262 0.000134865 0)
(-0.00546296 0.000130116 0)
(-0.00564616 0.000125008 0)
(-0.00582168 0.000119546 0)
(-0.00598903 0.000113736 0)
(-0.0061477 0.000107583 0)
(-0.00629721 0.000101091 0)
(-0.00643706 9.42637e-05 0)
(-0.00656679 8.71066e-05 0)
(-0.00668593 7.96249e-05 0)
(-0.00679402 7.18253e-05 0)
(-0.00689062 6.37156e-05 0)
(-0.0069753 5.53057e-05 0)
(-0.00704765 4.66075e-05 0)
(-0.00710727 3.76347e-05 0)
(-0.00715379 2.84033e-05 0)
(-0.00718688 1.89317e-05 0)
(-0.0072062 9.24214e-06 0)
(-0.00721148 -6.40595e-07 0)
(-0.00720249 -1.0689e-05 0)
(-0.00717901 -2.08724e-05 0)
(-0.00714089 -3.11571e-05 0)
(-0.00708802 -4.15064e-05 0)
(-0.00702037 -5.18801e-05 0)
(-0.00693793 -6.22348e-05 0)
(-0.00684078 -7.25245e-05 0)
(-0.00672907 -8.26997e-05 0)
(-0.006603 -9.27086e-05 0)
(-0.00646285 -0.000102497 0)
(-0.00630899 -0.000112011 0)
(-0.00614187 -0.000121193 0)
(-0.00596199 -0.000129985 0)
(-0.00576998 -0.000138325 0)
(-0.00556651 -0.000146155 0)
(-0.00535235 -0.000153414 0)
(-0.00512836 -0.000160045 0)
(-0.00489547 -0.00016599 0)
(-0.00465469 -0.000171194 0)
(-0.00440711 -0.000175604 0)
(-0.00415388 -0.000179169 0)
(-0.00389624 -0.000181841 0)
(-0.00363547 -0.000183579 0)
(-0.00337291 -0.000184342 0)
(-0.00310996 -0.000184097 0)
(-0.00284805 -0.000182814 0)
(-0.00258867 -0.000180471 0)
(-0.00233331 -0.000177048 0)
(-0.00208348 -0.000172534 0)
(-0.00184072 -0.000166923 0)
(-0.00160656 -0.000160215 0)
(-0.0013825 -0.00015242 0)
(-0.00117005 -0.000143553 0)
(-0.000970648 -0.000133638 0)
(-0.000785714 -0.00012271 0)
(-0.000616581 -0.000110815 0)
(-0.000464493 -9.8015e-05 0)
(-0.000330578 -8.43918e-05 0)
(-0.000215804 -7.00578e-05 0)
(-0.000120932 -5.5168e-05 0)
(-4.6439e-05 -3.99423e-05 0)
(7.58781e-06 -2.47017e-05 0)
(4.16075e-05 -9.93289e-06 0)
(5.6852e-05 3.61346e-06 0)
(5.56005e-05 1.47641e-05 0)
(4.16194e-05 2.16762e-05 0)
(2.1508e-05 2.15308e-05 0)
(5.49367e-06 1.09192e-05 0)
(5.0574e-06 -2.21549e-05 0)
(1.47141e-05 -3.12332e-05 0)
(1.67653e-05 -1.66199e-05 0)
(7.0822e-07 1.1734e-05 0)
(-4.00022e-05 4.77413e-05 0)
(-0.000108752 8.73989e-05 0)
(-0.000207123 0.000128095 0)
(-0.000335385 0.000168139 0)
(-0.000492875 0.000206459 0)
(-0.000678291 0.000242408 0)
(-0.000889917 0.000275615 0)
(-0.00112578 0.000305889 0)
(-0.00138376 0.000333159 0)
(-0.00166168 0.000357435 0)
(-0.00195733 0.000378783 0)
(-0.00226858 0.000397303 0)
(-0.0025933 0.000413116 0)
(-0.00292949 0.000426356 0)
(-0.00327521 0.000437164 0)
(-0.00362862 0.000445679 0)
(-0.00398797 0.000452039 0)
(-0.00435162 0.000456376 0)
(-0.00471801 0.000458815 0)
(-0.00508567 0.000459473 0)
(-0.00545323 0.000458458 0)
(-0.00581937 0.00045587 0)
(-0.00618286 0.000451798 0)
(-0.00654253 0.000446323 0)
(-0.00689728 0.000439514 0)
(-0.00724604 0.000431433 0)
(-0.00758781 0.000422136 0)
(-0.00792161 0.000411668 0)
(-0.00824651 0.000400071 0)
(-0.0085616 0.000387376 0)
(-0.008866 0.000373612 0)
(-0.00915885 0.000358804 0)
(-0.00943933 0.00034297 0)
(-0.00970661 0.00032613 0)
(-0.00995989 0.0003083 0)
(-0.0101984 0.000289495 0)
(-0.0104213 0.000269732 0)
(-0.0106279 0.000249027 0)
(-0.0108175 0.000227399 0)
(-0.0109893 0.00020487 0)
(-0.0111426 0.000181465 0)
(-0.0112768 0.000157217 0)
(-0.0113912 0.000132161 0)
(-0.0114851 0.000106338 0)
(-0.0115581 7.97969e-05 0)
(-0.0116096 5.25929e-05 0)
(-0.0116391 2.479e-05 0)
(-0.0116462 -3.54015e-06 0)
(-0.0116305 -3.23178e-05 0)
(-0.0115917 -6.14547e-05 0)
(-0.0115296 -9.08537e-05 0)
(-0.011444 -0.000120409 0)
(-0.0113349 -0.000150007 0)
(-0.0112024 -0.000179525 0)
(-0.0110465 -0.000208831 0)
(-0.0108675 -0.000237788 0)
(-0.0106657 -0.000266249 0)
(-0.0104417 -0.000294065 0)
(-0.010196 -0.00032108 0)
(-0.00992928 -0.000347132 0)
(-0.00964245 -0.000372058 0)
(-0.00933645 -0.000395692 0)
(-0.00901237 -0.000417868 0)
(-0.00867143 -0.00043842 0)
(-0.00831499 -0.000457184 0)
(-0.00794451 -0.000474002 0)
(-0.0075616 -0.000488719 0)
(-0.00716797 -0.000501188 0)
(-0.00676544 -0.000511269 0)
(-0.00635593 -0.000518832 0)
(-0.00594147 -0.000523758 0)
(-0.00552417 -0.000525939 0)
(-0.00510621 -0.000525282 0)
(-0.00468983 -0.000521709 0)
(-0.00427734 -0.000515157 0)
(-0.00387107 -0.00050558 0)
(-0.0034734 -0.000492949 0)
(-0.00308668 -0.000477255 0)
(-0.0027133 -0.000458509 0)
(-0.00235557 -0.000436746 0)
(-0.00201581 -0.000412023 0)
(-0.00169622 -0.000384426 0)
(-0.00139895 -0.000354073 0)
(-0.001126 -0.000321122 0)
(-0.000879206 -0.000285779 0)
(-0.000660202 -0.000248317 0)
(-0.000470351 -0.000209096 0)
(-0.000310664 -0.000168601 0)
(-0.000181694 -0.000127492 0)
(-8.33955e-05 -8.66912e-05 0)
(-1.49248e-05 -4.7501e-05 0)
(2.56134e-05 -1.17893e-05 0)
(4.14426e-05 1.77584e-05 0)
(3.7492e-05 3.73254e-05 0)
(2.16994e-05 4.16382e-05 0)
(6.04553e-06 2.37931e-05 0)
(3.25074e-06 -2.88266e-05 0)
(4.32973e-06 -3.26046e-05 0)
(-1.11465e-05 -5.73922e-07 0)
(-5.25149e-05 5.31558e-05 0)
(-0.000126071 0.000119548 0)
(-0.000235431 0.000192359 0)
(-0.000382336 0.000267272 0)
(-0.000567127 0.000341361 0)
(-0.000789076 0.000412682 0)
(-0.00104669 0.000479978 0)
(-0.00133794 0.000542469 0)
(-0.00166046 0.000599717 0)
(-0.00201166 0.000651517 0)
(-0.00238882 0.00069782 0)
(-0.0027892 0.00073869 0)
(-0.00321006 0.000774271 0)
(-0.00364869 0.000804753 0)
(-0.00410249 0.000830355 0)
(-0.00456894 0.000851318 0)
(-0.00504563 0.000867886 0)
(-0.00553026 0.000880303 0)
(-0.00602063 0.000888811 0)
(-0.00651468 0.000893638 0)
(-0.00701045 0.000894996 0)
(-0.00750607 0.000893088 0)
(-0.00799978 0.000888101 0)
(-0.00848992 0.000880202 0)
(-0.0089749 0.000869545 0)
(-0.00945321 0.000856265 0)
(-0.00992342 0.000840481 0)
(-0.0103841 0.000822299 0)
(-0.0108341 0.000801811 0)
(-0.0112719 0.000779096 0)
(-0.0116964 0.000754223 0)
(-0.0121064 0.000727248 0)
(-0.0125007 0.000698222 0)
(-0.0128782 0.000667188 0)
(-0.0132378 0.000634186 0)
(-0.0135783 0.000599251 0)
(-0.0138989 0.000562419 0)
(-0.0141983 0.000523725 0)
(-0.0144755 0.000483206 0)
(-0.0147297 0.000440904 0)
(-0.0149598 0.000396865 0)
(-0.015165 0.000351145 0)
(-0.0153442 0.000303806 0)
(-0.0154967 0.000254921 0)
(-0.0156217 0.000204575 0)
(-0.0157183 0.000152864 0)
(-0.015786 9.99006e-05 0)
(-0.0158241 4.58084e-05 0)
(-0.015832 -9.27209e-06 0)
(-0.0158093 -6.51842e-05 0)
(-0.0157556 -0.000121756 0)
(-0.0156706 -0.000178798 0)
(-0.0155541 -0.000236107 0)
(-0.0154062 -0.00029346 0)
(-0.0152268 -0.000350622 0)
(-0.0150161 -0.00040734 0)
(-0.0147746 -0.00046335 0)
(-0.0145027 -0.000518372 0)
(-0.0142011 -0.000572118 0)
(-0.0138705 -0.000624289 0)
(-0.0135119 -0.000674578 0)
(-0.0131265 -0.000722671 0)
(-0.0127155 -0.000768255 0)
(-0.0122804 -0.000811011 0)
(-0.0118229 -0.000850625 0)
(-0.0113447 -0.000886786 0)
(-0.0108479 -0.000919192 0)
(-0.0103345 -0.000947549 0)
(-0.00980683 -0.000971578 0)
(-0.00926728 -0.000991014 0)
(-0.00871842 -0.00100561 0)
(-0.00816292 -0.00101515 0)
(-0.00760356 -0.00101942 0)
(-0.00704323 -0.00101825 0)
(-0.00648489 -0.0010115 0)
(-0.00593158 -0.000999044 0)
(-0.00538636 -0.000980813 0)
(-0.00485233 -0.000956757 0)
(-0.00433261 -0.000926868 0)
(-0.00383028 -0.000891181 0)
(-0.00334839 -0.000849777 0)
(-0.0028899 -0.000802784 0)
(-0.00245769 -0.000750392 0)
(-0.00205449 -0.000692853 0)
(-0.00168285 -0.000630502 0)
(-0.00134507 -0.000563774 0)
(-0.00104318 -0.000493231 0)
(-0.000778828 -0.000419606 0)
(-0.000553194 -0.000343858 0)
(-0.000366867 -0.000267263 0)
(-0.000219692 -0.000191534 0)
(-0.000110573 -0.000118998 0)
(-3.72266e-05 -5.28347e-05 0)
(4.05799e-06 2.60163e-06 0)
(1.87415e-05 4.14286e-05 0)
(1.50719e-05 5.5843e-05 0)
(4.95468e-06 3.51575e-05 0)
(7.56315e-07 -2.90764e-05 0)
(-9.48548e-06 -1.76999e-05 0)
(-4.72014e-05 4.00408e-05 0)
(-0.000119185 0.00012673 0)
(-0.000230693 0.000230804 0)
(-0.000385097 0.000343969 0)
(-0.000583985 0.000460261 0)
(-0.000827553 0.000575494 0)
(-0.00111493 0.000686785 0)
(-0.00144443 0.000792183 0)
(-0.00181378 0.000890429 0)
(-0.00222029 0.000980761 0)
(-0.002661 0.00106277 0)
(-0.00313279 0.00113632 0)
(-0.00363245 0.00120143 0)
(-0.00415677 0.00125827 0)
(-0.00470256 0.00130709 0)
(-0.00526673 0.00134819 0)
(-0.00584625 0.00138192 0)
(-0.00643821 0.00140863 0)
(-0.00703983 0.0014287 0)
(-0.00764846 0.00144248 0)
(-0.00826155 0.00145031 0)
(-0.0088767 0.00145254 0)
(-0.00949161 0.00144947 0)
(-0.0101041 0.0014414 0)
(-0.0107121 0.00142857 0)
(-0.0113137 0.00141125 0)
(-0.011907 0.00138964 0)
(-0.0124901 0.00136394 0)
(-0.0130614 0.00133431 0)
(-0.0136192 0.00130091 0)
(-0.0141619 0.00126387 0)
(-0.014688 0.0012233 0)
(-0.0151959 0.00117929 0)
(-0.0156843 0.00113194 0)
(-0.0161517 0.00108131 0)
(-0.0165967 0.00102748 0)
(-0.017018 0.000970518 0)
(-0.0174143 0.000910475 0)
(-0.0177843 0.000847419 0)
(-0.0181267 0.000781416 0)
(-0.0184404 0.00071254 0)
(-0.0187241 0.000640874 0)
(-0.0189767 0.000566509 0)
(-0.0191972 0.000489554 0)
(-0.0193844 0.000410131 0)
(-0.0195375 0.000328381 0)
(-0.0196554 0.000244466 0)
(-0.0197375 0.000158568 0)
(-0.0197829 7.08914e-05 0)
(-0.0197909 -1.83339e-05 0)
(-0.0197611 -0.000108854 0)
(-0.019693 -0.000200389 0)
(-0.0195862 -0.000292634 0)
(-0.0194406 -0.000385258 0)
(-0.0192562 -0.000477905 0)
(-0.019033 -0.000570195 0)
(-0.0187713 -0.000661723 0)
(-0.0184716 -0.000752064 0)
(-0.0181346 -0.000840772 0)
(-0.0177609 -0.000927386 0)
(-0.0173517 -0.00101143 0)
(-0.0169081 -0.00109241 0)
(-0.0164315 -0.00116983 0)
(-0.0159235 -0.00124318 0)
(-0.015386 -0.00131197 0)
(-0.0148209 -0.0013757 0)
(-0.0142305 -0.00143386 0)
(-0.0136172 -0.00148598 0)
(-0.0129835 -0.0015316 0)
(-0.0123322 -0.00157027 0)
(-0.0116664 -0.00160157 0)
(-0.010989 -0.00162512 0)
(-0.0103035 -0.00164056 0)
(-0.00961305 -0.00164757 0)
(-0.00892129 -0.0016459 0)
(-0.00823178 -0.0016353 0)
(-0.00754821 -0.00161561 0)
(-0.00687428 -0.0015867 0)
(-0.00621375 -0.00154852 0)
(-0.00557037 -0.00150108 0)
(-0.00494783 -0.00144444 0)
(-0.00434981 -0.00137875 0)
(-0.00377985 -0.00130425 0)
(-0.00324136 -0.00122126 0)
(-0.00273758 -0.00113023 0)
(-0.00227149 -0.00103173 0)
(-0.00184581 -0.000926498 0)
(-0.00146286 -0.000815467 0)
(-0.00112451 -0.000699838 0)
(-0.000832093 -0.000581156 0)
(-0.000586246 -0.000461419 0)
(-0.000386778 -0.000343239 0)
(-0.000232488 -0.000230045 0)
(-0.000120961 -0.000126368 0)
(-4.8352e-05 -3.82009e-05 0)
(-9.11449e-06 2.66187e-05 0)
(4.55184e-06 5.79297e-05 0)
(3.06861e-06 4.1716e-05 0)
(-1.9559e-06 -2.1462e-05 0)
(-2.48349e-05 1.64313e-05 0)
(-8.74727e-05 0.000109029 0)
(-0.000193343 0.000236572 0)
(-0.000346109 0.000385476 0)
(-0.000548551 0.000545689 0)
(-0.000801822 0.000709774 0)
(-0.00110578 0.000872354 0)
(-0.00145929 0.00102961 0)
(-0.00186042 0.00117887 0)
(-0.00230665 0.00131838 0)
(-0.00279501 0.00144699 0)
(-0.00332223 0.00156406 0)
(-0.00388483 0.00166931 0)
(-0.00447924 0.00176271 0)
(-0.00510186 0.00184443 0)
(-0.00574909 0.00191475 0)
(-0.00641742 0.00197407 0)
(-0.0071034 0.00202283 0)
(-0.00780369 0.0020615 0)
(-0.0085151 0.00209058 0)
(-0.00923453 0.00211055 0)
(-0.00995906 0.0021219 0)
(-0.0106859 0.00212508 0)
(-0.0114123 0.00212053 0)
(-0.0121358 0.00210866 0)
(-0.0128539 0.00208983 0)
(-0.0135642 0.0020644 0)
(-0.0142647 0.00203267 0)
(-0.0149531 0.00199493 0)
(-0.0156275 0.00195141 0)
(-0.0162858 0.00190234 0)
(-0.0169261 0.0018479 0)
(-0.0175468 0.00178828 0)
(-0.0181458 0.0017236 0)
(-0.0187217 0.00165401 0)
(-0.0192726 0.00157962 0)
(-0.0197969 0.00150054 0)
(-0.0202931 0.00141687 0)
(-0.0207597 0.00132871 0)
(-0.021195 0.00123615 0)
(-0.0215977 0.0011393 0)
(-0.0219663 0.00103828 0)
(-0.0222995 0.000933206 0)
(-0.0225958 0.000824231 0)
(-0.0228542 0.000711515 0)
(-0.0230733 0.000595243 0)
(-0.023252 0.000475626 0)
(-0.0233893 0.000352903 0)
(-0.0234842 0.000227346 0)
(-0.0235359 9.92556e-05 0)
(-0.0235437 -3.10298e-05 0)
(-0.0235068 -0.000163138 0)
(-0.0234249 -0.000296662 0)
(-0.0232975 -0.000431155 0)
(-0.0231245 -0.000566136 0)
(-0.0229058 -0.000701089 0)
(-0.0226417 -0.000835461 0)
(-0.0223324 -0.000968668 0)
(-0.0219786 -0.00110009 0)
(-0.0215809 -0.0012291 0)
(-0.0211403 -0.00135501 0)
(-0.0206581 -0.00147714 0)
(-0.0201355 -0.00159479 0)
(-0.0195744 -0.00170723 0)
(-0.0189765 -0.00181376 0)
(-0.0183441 -0.00191363 0)
(-0.0176793 -0.00200614 0)
(-0.0169849 -0.00209058 0)
(-0.0162637 -0.00216626 0)
(-0.0155186 -0.00223251 0)
(-0.0147529 -0.0022887 0)
(-0.01397 -0.00233424 0)
(-0.0131736 -0.00236856 0)
(-0.0123674 -0.00239118 0)
(-0.0115554 -0.00240163 0)
(-0.0107416 -0.00239955 0)
(-0.00993018 -0.00238461 0)
(-0.00912538 -0.00235659 0)
(-0.00833148 -0.00231531 0)
(-0.0075528 -0.00226071 0)
(-0.00679366 -0.00219283 0)
(-0.00605832 -0.00211177 0)
(-0.00535094 -0.0020178 0)
(-0.00467558 -0.00191127 0)
(-0.00403613 -0.0017927 0)
(-0.00343624 -0.00166275 0)
(-0.00287928 -0.0015223 0)
(-0.00236829 -0.00137245 0)
(-0.00190585 -0.00121456 0)
(-0.00149407 -0.00105039 0)
(-0.00113439 -0.000882138 0)
(-0.000827569 -0.000712587 0)
(-0.000573454 -0.000545292 0)
(-0.000370894 -0.0003848 0)
(-0.000217556 -0.000236956 0)
(-0.000109738 -0.000109281 0)
(-4.21463e-05 -1.13657e-05 0)
(-7.96579e-06 4.46029e-05 0)
(8.56964e-07 4.20446e-05 0)
(-4.65723e-06 -5.64173e-06 0)
(-4.06474e-05 7.11517e-05 0)
(-0.000129483 0.000208473 0)
(-0.000270977 0.000385121 0)
(-0.000466898 0.000586009 0)
(-0.000719164 0.000799686 0)
(-0.00102827 0.00101748 0)
(-0.00139358 0.00123295 0)
(-0.00181355 0.00144141 0)
(-0.00228596 0.00163953 0)
(-0.00280799 0.00182499 0)
(-0.00337638 0.00199629 0)
(-0.00398756 0.00215253 0)
(-0.00463778 0.00229327 0)
(-0.00532312 0.00241839 0)
(-0.00603966 0.00252805 0)
(-0.00678346 0.00262257 0)
(-0.00755062 0.0027024 0)
(-0.00833735 0.00276809 0)
(-0.00913995 0.00282023 0)
(-0.00995484 0.00285944 0)
(-0.0107786 0.00288634 0)
(-0.0116079 0.00290155 0)
(-0.0124395 0.00290567 0)
(-0.0132706 0.00289925 0)
(-0.0140981 0.00288285 0)
(-0.0149193 0.00285695 0)
(-0.0157315 0.002822 0)
(-0.0165323 0.00277843 0)
(-0.0173192 0.0027266 0)
(-0.0180899 0.00266685 0)
(-0.0188421 0.00259948 0)
(-0.0195737 0.00252475 0)
(-0.0202825 0.00244289 0)
(-0.0209666 0.00235411 0)
(-0.021624 0.00225859 0)
(-0.0222528 0.0021565 0)
(-0.0228511 0.00204799 0)
(-0.0234171 0.0019332 0)
(-0.023949 0.00181229 0)
(-0.0244451 0.00168539 0)
(-0.0249038 0.00155265 0)
(-0.0253234 0.00141425 0)
(-0.0257025 0.00127036 0)
(-0.0260394 0.00112118 0)
(-0.0263328 0.000966947 0)
(-0.0265813 0.000807919 0)
(-0.0267837 0.000644391 0)
(-0.0269387 0.000476695 0)
(-0.0270454 0.000305203 0)
(-0.0271027 0.000130332 0)
(-0.0271099 -4.74557e-05 0)
(-0.0270662 -0.000227651 0)
(-0.0269712 -0.000409696 0)
(-0.0268244 -0.000592985 0)
(-0.0266257 -0.000776864 0)
(-0.026375 -0.00096063 0)
(-0.0260726 -0.00114354 0)
(-0.0257189 -0.00132479 0)
(-0.0253145 -0.00150356 0)
(-0.0248603 -0.00167898 0)
(-0.0243574 -0.00185014 0)
(-0.0238071 -0.00201612 0)
(-0.0232111 -0.00217598 0)
(-0.0225713 -0.00232873 0)
(-0.0218898 -0.00247342 0)
(-0.021169 -0.00260907 0)
(-0.0204116 -0.00273472 0)
(-0.0196204 -0.00284941 0)
(-0.0187987 -0.00295223 0)
(-0.0179499 -0.00304228 0)
(-0.0170777 -0.00311871 0)
(-0.0161858 -0.00318072 0)
(-0.0152784 -0.00322759 0)
(-0.0143597 -0.00325864 0)
(-0.0134342 -0.00327328 0)
(-0.0125063 -0.00327101 0)
(-0.0115808 -0.00325142 0)
(-0.0106624 -0.0032142 0)
(-0.00975596 -0.00315916 0)
(-0.00886619 -0.00308623 0)
(-0.00799795 -0.00299547 0)
(-0.00715598 -0.00288707 0)
(-0.00634492 -0.00276139 0)
(-0.00556925 -0.00261897 0)
(-0.00483328 -0.00246053 0)
(-0.00414102 -0.00228701 0)
(-0.0034962 -0.00209962 0)
(-0.00290214 -0.00189987 0)
(-0.00236167 -0.00168964 0)
(-0.00187709 -0.00147126 0)
(-0.00145005 -0.00124762 0)
(-0.00108143 -0.00102233 0)
(-0.000771238 -0.000799891 0)
(-0.000518494 -0.000585927 0)
(-0.000321124 -0.000387511 0)
(-0.00017578 -0.000213527 0)
(-7.76722e-05 -7.50635e-05 0)
(-2.13043e-05 1.40795e-05 0)
(-1.43351e-06 3.55367e-05 0)
(-7.26247e-06 1.83626e-05 0)
(-5.63351e-05 0.0001469 0)
(-0.000171702 0.000339278 0)
(-0.000349475 0.00057356 0)
(-0.000589381 0.000833661 0)
(-0.000892295 0.00110709 0)
(-0.00125791 0.00138419 0)
(-0.00168492 0.00165765 0)
(-0.00217131 0.00192202 0)
(-0.00271445 0.00217334 0)
(-0.00331118 0.00240882 0)
(-0.00395795 0.00262659 0)
(-0.0046509 0.00282549 0)
(-0.00538597 0.0030049 0)
(-0.00615897 0.00316462 0)
(-0.00696567 0.00330479 0)
(-0.00780182 0.00342573 0)
(-0.00866323 0.00352799 0)
(-0.00954578 0.00361218 0)
(-0.0104454 0.00367901 0)
(-0.0113583 0.00372923 0)
(-0.0122807 0.00376359 0)
(-0.0132088 0.00378287 0)
(-0.0141394 0.00378779 0)
(-0.0150689 0.00377907 0)
(-0.0159943 0.00375736 0)
(-0.0169125 0.0037233 0)
(-0.0178204 0.00367746 0)
(-0.0187154 0.00362037 0)
(-0.0195948 0.00355251 0)
(-0.0204558 0.0034743 0)
(-0.0212961 0.00338613 0)
(-0.0221131 0.00328835 0)
(-0.0229047 0.00318125 0)
(-0.0236684 0.00306511 0)
(-0.0244022 0.00294018 0)
(-0.0251038 0.00280668 0)
(-0.0257713 0.00266481 0)
(-0.0264025 0.00251477 0)
(-0.0269955 0.00235677 0)
(-0.0275485 0.00219099 0)
(-0.0280595 0.00201764 0)
(-0.0285269 0.00183695 0)
(-0.0289487 0.00164917 0)
(-0.0293235 0.00145456 0)
(-0.0296496 0.00125343 0)
(-0.0299255 0.00104613 0)
(-0.0301499 0.000833055 0)
(-0.0303215 0.000614634 0)
(-0.0304391 0.000391359 0)
(-0.0305016 0.000163777 0)
(-0.0305082 -6.75097e-05 0)
(-0.0304582 -0.000301837 0)
(-0.0303509 -0.00053848 0)
(-0.0301859 -0.000776653 0)
(-0.0299632 -0.00101551 0)
(-0.0296826 -0.00125413 0)
(-0.0293445 -0.00149157 0)
(-0.0289493 -0.00172678 0)
(-0.0284977 -0.00195871 0)
(-0.0279907 -0.00218624 0)
(-0.0274295 -0.00240819 0)
(-0.0268158 -0.00262338 0)
(-0.0261512 -0.00283059 0)
(-0.0254379 -0.00302858 0)
(-0.0246782 -0.0032161 0)
(-0.0238749 -0.0033919 0)
(-0.0230308 -0.00355474 0)
(-0.0221491 -0.00370342 0)
(-0.0212335 -0.00383675 0)
(-0.0202877 -0.00395358 0)
(-0.0193156 -0.00405284 0)
(-0.0183216 -0.00413351 0)
(-0.0173101 -0.00419465 0)
(-0.0162858 -0.00423541 0)
(-0.0152536 -0.00425504 0)
(-0.0142185 -0.00425292 0)
(-0.0131855 -0.00422853 0)
(-0.01216 -0.00418149 0)
(-0.011147 -0.00411159 0)
(-0.0101521 -0.00401874 0)
(-0.00918027 -0.00390306 0)
(-0.00823682 -0.00376483 0)
(-0.00732678 -0.00360455 0)
(-0.00645503 -0.00342293 0)
(-0.00562623 -0.00322095 0)
(-0.00484476 -0.00299985 0)
(-0.00411463 -0.00276121 0)
(-0.00343944 -0.002507 0)
(-0.00282229 -0.00223962 0)
(-0.0022657 -0.00196201 0)
(-0.00177152 -0.0016778 0)
(-0.00134083 -0.0013914 0)
(-0.000973893 -0.00110822 0)
(-0.000670006 -0.000834909 0)
(-0.00042749 -0.000579646 0)
(-0.000243504 -0.00035249 0)
(-0.000113926 -0.000165742 0)
(-3.47483e-05 -3.44058e-05 0)
(-3.67374e-06 2.20388e-05 0)
(-9.73957e-06 5.03453e-05 0)
(-7.15898e-05 0.000243555 0)
(-0.000213236 0.000501546 0)
(-0.00042719 0.000802181 0)
(-0.00071112 0.00112882 0)
(-0.00106477 0.00146825 0)
(-0.00148689 0.0018101 0)
(-0.00197545 0.00214636 0)
(-0.00252784 0.00247097 0)
(-0.00314095 0.00277942 0)
(-0.00381125 0.00306851 0)
(-0.00453483 0.00333603 0)
(-0.00530753 0.00358058 0)
(-0.00612501 0.00380137 0)
(-0.0069828 0.00399812 0)
(-0.00787639 0.00417093 0)
(-0.00880125 0.00432016 0)
(-0.00975292 0.00444638 0)
(-0.010727 0.00455033 0)
(-0.0117191 0.0046328 0)
(-0.0127252 0.00469469 0)
(-0.0137412 0.00473688 0)
(-0.0147631 0.00476028 0)
(-0.0157872 0.00476578 0)
(-0.01681 0.00475421 0)
(-0.0178278 0.0047264 0)
(-0.0188375 0.00468309 0)
(-0.0198357 0.004625 0)
(-0.0208196 0.00455277 0)
(-0.021786 0.00446698 0)
(-0.0227321 0.00436818 0)
(-0.0236553 0.00425684 0)
(-0.0245528 0.00413338 0)
(-0.0254221 0.0039982 0)
(-0.0262608 0.00385163 0)
(-0.0270664 0.003694 0)
(-0.0278365 0.00352559 0)
(-0.028569 0.00334667 0)
(-0.0292616 0.00315749 0)
(-0.0299121 0.00295831 0)
(-0.0305185 0.0027494 0)
(-0.0310787 0.00253101 0)
(-0.0315909 0.00230344 0)
(-0.032053 0.00206701 0)
(-0.0324634 0.00182207 0)
(-0.0328204 0.00156901 0)
(-0.0331222 0.00130828 0)
(-0.0333674 0.00104038 0)
(-0.0335546 0.000765856 0)
(-0.0336826 0.000485331 0)
(-0.0337502 0.000199493 0)
(-0.0337564 -9.08984e-05 0)
(-0.0337005 -0.000385009 0)
(-0.0335819 -0.00068193 0)
(-0.0334001 -0.000980677 0)
(-0.033155 -0.00128019 0)
(-0.0328466 -0.00157933 0)
(-0.0324751 -0.0018769 0)
(-0.0320411 -0.00217162 0)
(-0.0315454 -0.00246215 0)
(-0.0309891 -0.00274711 0)
(-0.0303735 -0.00302504 0)
(-0.0297003 -0.00329447 0)
(-0.0289714 -0.00355388 0)
(-0.0281892 -0.00380173 0)
(-0.0273562 -0.00403647 0)
(-0.0264754 -0.00425656 0)
(-0.0255499 -0.00446046 0)
(-0.0245832 -0.00464667 0)
(-0.0235793 -0.00481373 0)
(-0.022542 -0.00496022 0)
(-0.0214759 -0.00508481 0)
(-0.0203856 -0.00518625 0)
(-0.0192758 -0.00526338 0)
(-0.0181517 -0.00531515 0)
(-0.0170186 -0.00534067 0)
(-0.0158818 -0.00533914 0)
(-0.0147469 -0.00530997 0)
(-0.0136195 -0.0052527 0)
(-0.0125053 -0.00516708 0)
(-0.0114099 -0.00505304 0)
(-0.0103391 -0.00491074 0)
(-0.00929841 -0.00474058 0)
(-0.00829326 -0.00454321 0)
(-0.00732889 -0.00431954 0)
(-0.00641032 -0.00407082 0)
(-0.00554224 -0.00379864 0)
(-0.00472897 -0.00350496 0)
(-0.00397438 -0.00319223 0)
(-0.00328183 -0.00286339 0)
(-0.0026541 -0.00252204 0)
(-0.00209327 -0.00217249 0)
(-0.00160071 -0.00181995 0)
(-0.00117696 -0.0014707 0)
(-0.000821717 -0.00113233 0)
(-0.000533783 -0.00081398 0)
(-0.000310927 -0.000526697 0)
(-0.000149782 -0.000283729 0)
(-4.78767e-05 -0.000100916 0)
(-5.79968e-06 1.67177e-06 0)
(-1.20729e-05 8.99978e-05 0)
(-8.62614e-05 0.000360639 0)
(-0.000253573 0.000694845 0)
(-0.000503116 0.00107065 0)
(-0.000830557 0.00147121 0)
(-0.00123447 0.00188291 0)
(-0.00171262 0.00229488 0)
(-0.00226215 0.0026986 0)
(-0.00287979 0.00308753 0)
(-0.00356191 0.00345676 0)
(-0.00430453 0.00380271 0)
(-0.00510338 0.00412289 0)
(-0.00595396 0.00441568 0)
(-0.00685163 0.00468018 0)
(-0.00779166 0.00491602 0)
(-0.00876925 0.00512325 0)
(-0.00977963 0.00530228 0)
(-0.0108181 0.00545373 0)
(-0.0118799 0.00557842 0)
(-0.0129606 0.00567727 0)
(-0.0140557 0.00575127 0)
(-0.0151609 0.00580148 0)
(-0.016272 0.00582893 0)
(-0.0173852 0.00583466 0)
(-0.0184964 0.00581966 0)
(-0.0196019 0.00578489 0)
(-0.0206983 0.00573124 0)
(-0.0217821 0.00565955 0)
(-0.02285 0.00557059 0)
(-0.0238988 0.00546507 0)
(-0.0249254 0.00534362 0)
(-0.025927 0.00520683 0)
(-0.0269006 0.00505521 0)
(-0.0278434 0.00488925 0)
(-0.0287529 0.00470935 0)
(-0.0296263 0.00451592 0)
(-0.0304612 0.00430931 0)
(-0.0312552 0.00408985 0)
(-0.0320058 0.00385787 0)
(-0.0327107 0.00361369 0)
(-0.0333676 0.00335763 0)
(-0.0339745 0.00309004 0)
(-0.0345291 0.00281128 0)
(-0.0350295 0.00252174 0)
(-0.0354738 0.00222188 0)
(-0.0358601 0.00191217 0)
(-0.0361866 0.00159317 0)
(-0.0364517 0.0012655 0)
(-0.0366541 0.000929824 0)
(-0.0367922 0.000586918 0)
(-0.0368649 0.000237621 0)
(-0.0368712 -0.000117137 0)
(-0.0368103 -0.000476338 0)
(-0.0366814 -0.000838874 0)
(-0.0364841 -0.00120354 0)
(-0.0362184 -0.00156906 0)
(-0.0358841 -0.00193404 0)
(-0.0354815 -0.00229703 0)
(-0.0350114 -0.00265647 0)
(-0.0344745 -0.00301075 0)
(-0.0338719 -0.00335817 0)
(-0.0332053 -0.003697 0)
(-0.0324763 -0.00402543 0)
(-0.031687 -0.00434164 0)
(-0.03084 -0.00464376 0)
(-0.029938 -0.00492992 0)
(-0.0289841 -0.00519825 0)
(-0.0279817 -0.00544691 0)
(-0.0269347 -0.00567407 0)
(-0.0258471 -0.00587798 0)
(-0.0247233 -0.00605693 0)
(-0.0235681 -0.00620932 0)
(-0.0223863 -0.00633363 0)
(-0.0211831 -0.00642849 0)
(-0.019964 -0.00649265 0)
(-0.0187347 -0.00652501 0)
(-0.0175009 -0.00652466 0)
(-0.0162685 -0.00649087 0)
(-0.0150436 -0.00642314 0)
(-0.0138322 -0.00632116 0)
(-0.0126404 -0.0061849 0)
(-0.0114743 -0.00601458 0)
(-0.0103397 -0.0058107 0)
(-0.00924256 -0.00557409 0)
(-0.00818838 -0.00530588 0)
(-0.00718252 -0.00500761 0)
(-0.00622999 -0.00468121 0)
(-0.0053354 -0.00432908 0)
(-0.00450292 -0.00395414 0)
(-0.00373618 -0.0035599 0)
(-0.00303822 -0.00315058 0)
(-0.00241145 -0.00273118 0)
(-0.00185753 -0.00230769 0)
(-0.00137738 -0.00188719 0)
(-0.000971117 -0.00147809 0)
(-0.000638106 -0.0010904 0)
(-0.000376779 -0.000735954 0)
(-0.000184554 -0.000428719 0)
(-6.04544e-05 -0.00018507 0)
(-7.78348e-06 -2.52906e-05 0)
(-1.42588e-05 0.000136963 0)
(-0.000100278 0.000497483 0)
(-0.000292441 0.00091841 0)
(-0.000576679 0.00137822 0)
(-0.000946743 0.00186013 0)
(-0.00140006 0.00235036 0)
(-0.00193337 0.00283778 0)
(-0.00254296 0.00331353 0)
(-0.00322485 0.00377073 0)
(-0.00397484 0.00420417 0)
(-0.00478846 0.00460999 0)
(-0.00566102 0.00498547 0)
(-0.00658769 0.00532884 0)
(-0.00756352 0.00563908 0)
(-0.00858346 0.00591575 0)
(-0.00964249 0.00615891 0)
(-0.0107356 0.00636899 0)
(-0.0118577 0.00654667 0)
(-0.013004 0.00669285 0)
(-0.0141697 0.00680859 0)
(-0.0153502 0.00689499 0)
(-0.0165408 0.00695326 0)
(-0.0177373 0.00698457 0)
(-0.0189354 0.0069901 0)
(-0.0201309 0.00697101 0)
(-0.0213201 0.0069284 0)
(-0.0224991 0.00686329 0)
(-0.0236642 0.00677667 0)
(-0.024812 0.00666944 0)
(-0.0259391 0.00654242 0)
(-0.0270422 0.00639636 0)
(-0.0281182 0.00623195 0)
(-0.029164 0.00604982 0)
(-0.0301767 0.00585051 0)
(-0.0311534 0.00563455 0)
(-0.0320914 0.00540239 0)
(-0.0329879 0.00515447 0)
(-0.0338403 0.0048912 0)
(-0.0346461 0.00461297 0)
(-0.0354028 0.00432018 0)
(-0.036108 0.00401323 0)
(-0.0367593 0.00369252 0)
(-0.0373546 0.00335851 0)
(-0.0378917 0.00301169 0)
(-0.0383685 0.00265259 0)
(-0.038783 0.00228179 0)
(-0.0391334 0.00189998 0)
(-0.0394181 0.00150787 0)
(-0.0396352 0.00110631 0)
(-0.0397836 0.000696191 0)
(-0.0398618 0.000278536 0)
(-0.0398688 -0.000145549 0)
(-0.0398037 -0.000574848 0)
(-0.0396657 -0.00100804 0)
(-0.0394545 -0.00144369 0)
(-0.0391698 -0.00188027 0)
(-0.0388116 -0.00231614 0)
(-0.0383803 -0.00274956 0)