/*--------------------------------*- C++ -*----------------------------------*\
| =========                 |                                                 |
| \\      /  F ield         | OpenFOAM: The Open Source CFD Toolbox           |
|  \\    /   O peration     | Version:  2512                                  |
|   \\  /    A nd           | Website:  www.openfoam.com                      |
|    \\/     M anipulation  |                                                 |
\*---------------------------------------------------------------------------*/
FoamFile
{
    version     2.0;
    format      ascii;
    arch        "LSB;label=32;scalar=64";
    class       surfaceScalarField;
    location    "0.46";
    object      phi;
}
// * * * * * * * * * * * * * * * * * * * * * * * * * * * * * * * * * * * * * //

dimensions      [0 3 -1 0 0 0 0];

oriented        oriented;

internalField   nonuniform List<scalar> 
19800
(
7.59085e-11
-7.59351e-11
2.35469e-10
-1.59557e-10
3.90731e-10
-1.55261e-10
4.88802e-10
-9.80742e-11
5.01832e-10
-1.30304e-11
4.16775e-10
8.50551e-11
2.29272e-10
1.87501e-10
-5.98761e-11
2.89146e-10
-4.46816e-10
3.86934e-10
-9.2594e-10
4.79128e-10
-1.49068e-09
5.64734e-10
-2.13396e-09
6.4328e-10
-2.84855e-09
7.14591e-10
-3.62725e-09
7.787e-10
-4.46304e-09
8.35796e-10
-5.34917e-09
8.8613e-10
-6.27919e-09
9.30014e-10
-7.24698e-09
9.67793e-10
-8.24678e-09
9.99803e-10
-9.27317e-09
1.02638e-09
-1.0321e-08
1.04785e-09
-1.13855e-08
1.06453e-09
-1.24622e-08
1.07666e-09
-1.35467e-08
1.08451e-09
-1.4635e-08
1.0883e-09
-1.57232e-08
1.08821e-09
-1.68076e-08
1.08438e-09
-1.78846e-08
1.07696e-09
-1.89506e-08
1.06603e-09
-2.00023e-08
1.05168e-09
-2.10362e-08
1.03395e-09
-2.20491e-08
1.01286e-09
-2.30375e-08
9.88456e-10
-2.39982e-08
9.60718e-10
-2.49279e-08
9.29642e-10
-2.58231e-08
8.95223e-10
-2.66806e-08
8.57445e-10
-2.74969e-08
8.16296e-10
-2.82686e-08
7.71765e-10
-2.89925e-08
7.23855e-10
-2.9665e-08
6.72589e-10
-3.0283e-08
6.18e-10
-3.08432e-08
5.60137e-10
-3.13423e-08
4.9908e-10
-3.17772e-08
4.34924e-10
-3.2145e-08
3.678e-10
-3.24429e-08
2.97873e-10
-3.26682e-08
2.25326e-10
-3.28186e-08
1.50383e-10
-3.28919e-08
7.33048e-11
-3.28862e-08
-5.6253e-12
-3.28002e-08
-8.60763e-11
-3.26325e-08
-1.67684e-10
-3.23824e-08
-2.50063e-10
-3.20496e-08
-3.32792e-10
-3.16342e-08
-4.15411e-10
-3.11368e-08
-4.97448e-10
-3.05584e-08
-5.78398e-10
-2.99006e-08
-6.57738e-10
-2.91657e-08
-7.34938e-10
-2.83562e-08
-8.09455e-10
-2.74755e-08
-8.80728e-10
-2.65273e-08
-9.48209e-10
-2.55159e-08
-1.01136e-09
-2.44463e-08
-1.06965e-09
-2.33237e-08
-1.12255e-09
-2.21542e-08
-1.16959e-09
-2.09439e-08
-1.2103e-09
-1.96996e-08
-1.24427e-09
-1.84285e-08
-1.27111e-09
-1.7138e-08
-1.29051e-09
-1.58358e-08
-1.30218e-09
-1.45299e-08
-1.30591e-09
-1.32283e-08
-1.30153e-09
-1.19394e-08
-1.28897e-09
-1.06712e-08
-1.26819e-09
-9.43196e-09
-1.23923e-09
-8.22972e-09
-1.20223e-09
-7.07236e-09
-1.15737e-09
-5.96747e-09
-1.1049e-09
-4.9223e-09
-1.04516e-09
-3.94374e-09
-9.78559e-10
-3.03818e-09
-9.05568e-10
-2.21145e-09
-8.26738e-10
-1.46876e-09
-7.42689e-10
-8.14619e-10
-6.54135e-10
-2.52735e-10
-5.6188e-10
2.14097e-10
-4.66837e-10
5.84146e-10
-3.70053e-10
8.56776e-10
-2.72628e-10
1.03296e-09
-1.76175e-10
1.11531e-09
-8.23577e-11
1.10872e-09
6.5774e-12
1.02106e-09
8.76629e-11
8.64211e-10
1.56851e-10
6.55784e-10
2.08428e-10
4.21417e-10
2.34364e-10
1.98325e-10
2.23092e-10
3.97405e-11
1.58591e-10
3.97406e-11
1.58389e-10
-2.34323e-10
4.05609e-10
-4.06793e-10
5.99759e-10
-3.49419e-10
6.45688e-10
-1.44004e-10
4.83152e-10
1.49508e-10
7.8029e-11
4.90186e-10
-5.8521e-10
8.50759e-10
-1.50949e-09
1.21343e-09
-2.68927e-09
1.56672e-09
-4.11348e-09
1.90334e-09
-5.76759e-09
2.21884e-09
-7.63496e-09
2.51064e-09
-9.69783e-09
2.77745e-09
-1.1938e-08
3.01886e-09
-1.43373e-08
3.23508e-09
-1.68778e-08
3.42667e-09
-1.95423e-08
3.59451e-09
-2.23141e-08
3.7396e-09
-2.51773e-08
3.863e-09
-2.81168e-08
3.96584e-09
-3.11181e-08
4.04918e-09
-3.41676e-08
4.11406e-09
-3.72524e-08
4.16142e-09
-4.036e-08
4.19216e-09
-4.34787e-08
4.20701e-09
-4.65972e-08
4.20665e-09
-4.97044e-08
4.19166e-09
-5.279e-08
4.1625e-09
-5.58435e-08
4.11955e-09
-5.88549e-08
4.0631e-09
-6.18144e-08
3.99336e-09
-6.47119e-08
3.91047e-09
-6.7538e-08
3.81451e-09
-7.02828e-08
3.70553e-09
-7.29367e-08
3.58354e-09
-7.549e-08
3.44855e-09
-7.79331e-08
3.30054e-09
-8.02563e-08
3.13952e-09
-8.24501e-08
2.9655e-09
-8.45048e-08
2.77856e-09
-8.6411e-08
2.5788e-09
-8.81594e-08
2.3664e-09
-8.97408e-08
2.14161e-09
-9.11465e-08
1.90476e-09
-9.23679e-08
1.65627e-09
-9.33967e-08
1.39668e-09
-9.42255e-08
1.12663e-09
-9.4847e-08
8.46874e-10
-9.52549e-08
5.58286e-10
-9.54435e-08
2.61874e-10
-9.54079e-08
-4.12293e-11
-9.51442e-08
-3.49779e-10
-9.46495e-08
-6.62393e-10
-9.3922e-08
-9.77575e-10
-9.29611e-08
-1.29373e-09
-9.17673e-08
-1.60914e-09
-9.03428e-08
-1.92199e-09
-8.86908e-08
-2.2304e-09
-8.68161e-08
-2.53243e-09
-8.4725e-08
-2.82606e-09
-8.24252e-08
-3.10925e-09
-7.99259e-08
-3.37996e-09
-7.7238e-08
-3.63613e-09
-7.43736e-08
-3.87573e-09
-7.13465e-08
-4.0968e-09
-6.81716e-08
-4.29744e-09
-6.48654e-08
-4.47583e-09
-6.14454e-08
-4.6303e-09
-5.79304e-08
-4.75929e-09
-5.43401e-08
-4.86142e-09
-5.06951e-08
-4.93548e-09
-4.70168e-08
-4.98045e-09
-4.33272e-08
-4.99555e-09
-3.96485e-08
-4.98021e-09
-3.60033e-08
-4.93412e-09
-3.24143e-08
-4.85721e-09
-2.89039e-08
-4.74969e-09
-2.54941e-08
-4.612e-09
-2.22066e-08
-4.44489e-09
-1.90621e-08
-4.24937e-09
-1.60806e-08
-4.02672e-09
-1.32806e-08
-3.77852e-09
-1.06796e-08
-3.5066e-09
-8.29322e-09
-3.21311e-09
-6.13539e-09
-2.90051e-09
-4.21795e-09
-2.57157e-09
-2.5504e-09
-2.22943e-09
-1.13958e-09
-1.87766e-09
1.07022e-11
-1.52033e-09
9.00401e-10
-1.16233e-09
1.53323e-09
-8.09017e-10
1.91814e-09
-4.67271e-10
2.07012e-09
-1.45402e-10
2.01173e-09
1.46067e-10
1.77499e-09
3.93588e-10
1.40395e-09
5.79459e-10
9.57451e-10
6.80872e-10
5.11434e-10
6.69131e-10
1.58017e-10
5.12018e-10
1.97759e-10
1.56698e-10
-3.9102e-10
3.51524e-10
-6.01629e-10
4.18951e-10
-4.16849e-10
2.46961e-10
2.79895e-11
-2.39441e-10
6.35909e-10
-1.08597e-09
1.33671e-09
-2.31574e-09
2.08052e-09
-3.93523e-09
2.83293e-09
-5.93904e-09
3.57052e-09
-8.31334e-09
4.27765e-09
-1.10387e-08
4.94418e-09
-1.40919e-08
5.56382e-09
-1.74475e-08
6.13307e-09
-2.10789e-08
6.65032e-09
-2.49592e-08
7.11534e-09
-2.90614e-08
7.52888e-09
-3.33592e-08
7.89228e-09
-3.78269e-08
8.2073e-09
-4.24398e-08
8.47594e-09
-4.71743e-08
8.70028e-09
-5.20075e-08
8.88243e-09
-5.69179e-08
9.0244e-09
-6.18846e-08
9.12812e-09
-6.68877e-08
9.19532e-09
-7.19083e-08
9.2276e-09
-7.6928e-08
9.22632e-09
-8.1929e-08
9.19267e-09
-8.68941e-08
9.12764e-09
-9.18066e-08
9.03203e-09
-9.665e-08
8.90648e-09
-1.01408e-07
8.75147e-09
-1.06065e-07
8.56733e-09
-1.10605e-07
8.3543e-09
-1.15012e-07
8.11252e-09
-1.1927e-07
7.84208e-09
-1.23365e-07
7.54303e-09
-1.2728e-07
7.21541e-09
-1.30999e-07
6.85931e-09
-1.34509e-07
6.47486e-09
-1.37792e-07
6.06226e-09
-1.40835e-07
5.62184e-09
-1.43623e-07
5.15404e-09
-1.46141e-07
4.65947e-09
-1.48375e-07
4.13894e-09
-1.50312e-07
3.59342e-09
-1.5194e-07
3.02413e-09
-1.53246e-07
2.43252e-09
-1.54219e-07
1.82029e-09
-1.5485e-07
1.18937e-09
-1.5513e-07
5.41973e-10
-1.55052e-07
-1.19417e-10
-1.5461e-07
-7.92064e-10
-1.53799e-07
-1.47298e-09
-1.52618e-07
-2.15892e-09
-1.51065e-07
-2.84641e-09
-1.49143e-07
-3.53176e-09
-1.46853e-07
-4.21108e-09
-1.44203e-07
-4.88033e-09
-1.41201e-07
-5.53531e-09
-1.37855e-07
-6.17175e-09
-1.34179e-07
-6.78526e-09
-1.30187e-07
-7.37147e-09
-1.25897e-07
-7.92603e-09
-1.21329e-07
-8.44462e-09
-1.16502e-07
-8.92305e-09
-1.11443e-07
-9.35727e-09
-1.06175e-07
-9.74347e-09
-1.00727e-07
-1.00781e-08
-9.51286e-08
-1.03578e-08
-8.94104e-08
-1.05797e-08
-8.36047e-08
-1.07412e-08
-7.77449e-08
-1.08402e-08
-7.18653e-08
-1.08751e-08
-6.60009e-08
-1.08447e-08
-6.01868e-08
-1.07482e-08
-5.44582e-08
-1.05858e-08
-4.88503e-08
-1.03577e-08
-4.33973e-08
-1.0065e-08
-3.81328e-08
-9.70934e-09
-3.30893e-08
-9.29297e-09
-2.82973e-08
-8.81866e-09
-2.3786e-08
-8.28985e-09
-1.9582e-08
-7.71061e-09
-1.57095e-08
-7.08564e-09
-1.21897e-08
-6.42031e-09
-9.04052e-09
-5.72072e-09
-6.27615e-09
-4.9938e-09
-3.90642e-09
-4.24739e-09
-1.9363e-09
-3.49046e-09
-3.65293e-10
-2.73333e-09
8.13712e-10
-1.98802e-09
1.61527e-09
-1.26884e-09
2.06286e-09
-5.92994e-10
2.19055e-09
1.8369e-11
2.04492e-09
5.39218e-10
1.68741e-09
9.36972e-10
1.19652e-09
1.17178e-09
6.6937e-10
1.19628e-09
2.22307e-10
9.59085e-10
4.20072e-10
1.0078e-10
-4.91802e-10
1.48638e-10
-6.49483e-10
-2.35191e-11
-2.44697e-10
-5.30513e-10
5.34981e-10
-1.45119e-09
1.5566e-09
-2.83503e-09
2.72054e-09
-4.70812e-09
3.95363e-09
-7.07853e-09
5.20335e-09
-9.94063e-09
6.43261e-09
-1.32787e-08
7.6157e-09
-1.70697e-08
8.73522e-09
-2.12859e-08
9.77995e-09
-2.58959e-08
1.07431e-08
-3.08667e-08
1.16212e-08
-3.61644e-08
1.2413e-08
-4.17546e-08
1.31191e-08
-4.76034e-08
1.37411e-08
-5.36776e-08
1.42815e-08
-5.99449e-08
1.47432e-08
-6.6374e-08
1.51294e-08
-7.29349e-08
1.54433e-08
-7.95985e-08
1.56881e-08
-8.63372e-08
1.58668e-08
-9.3124e-08
1.59822e-08
-9.99333e-08
1.60369e-08
-1.0674e-07
1.60331e-08
-1.1352e-07
1.59728e-08
-1.2025e-07
1.58577e-08
-1.26907e-07
1.56891e-08
-1.33469e-07
1.5468e-08
-1.39913e-07
1.51954e-08
-1.46217e-07
1.48718e-08
-1.52361e-07
1.44977e-08
-1.58322e-07
1.40735e-08
-1.64079e-07
1.35993e-08
-1.69611e-07
1.30753e-08
-1.74898e-07
1.25017e-08
-1.79917e-07
1.18788e-08
-1.84649e-07
1.12068e-08
-1.89073e-07
1.04862e-08
-1.93169e-07
9.71778e-09
-1.96917e-07
8.90231e-09
-2.00299e-07
8.04097e-09
-2.03295e-07
7.13522e-09
-2.05888e-07
6.18687e-09
-2.08062e-07
5.1981e-09
-2.09801e-07
4.17147e-09
-2.11091e-07
3.10996e-09
-2.11919e-07
2.017e-09
-2.12273e-07
8.9643e-10
-2.12145e-07
-2.47458e-10
-2.11527e-07
-1.40992e-09
-2.10414e-07
-2.58581e-09
-2.08804e-07
-3.76955e-09
-2.06695e-07
-4.95517e-09
-2.0409e-07
-6.13637e-09
-2.00995e-07
-7.30651e-09
-1.97416e-07
-8.4587e-09
-1.93366e-07
-9.58579e-09
-1.88857e-07
-1.06805e-08
-1.83907e-07
-1.17354e-08
-1.78535e-07
-1.27431e-08
-1.72765e-07
-1.36962e-08
-1.66622e-07
-1.45874e-08
-1.60136e-07
-1.54096e-08
-1.53337e-07
-1.6156e-08
-1.46261e-07
-1.68202e-08
-1.38943e-07
-1.7396e-08
-1.31422e-07
-1.7878e-08
-1.23741e-07
-1.82613e-08
-1.1594e-07
-1.85416e-08
-1.08065e-07
-1.87152e-08
-1.00161e-07
-1.87794e-08
-9.22732e-08
-1.87324e-08
-8.44485e-08
-1.8573e-08
-7.67332e-08
-1.83011e-08
-6.91734e-08
-1.79175e-08
-6.18143e-08
-1.7424e-08
-5.47001e-08
-1.68236e-08
-4.78732e-08
-1.61199e-08
-4.13739e-08
-1.53179e-08
-3.52402e-08
-1.44236e-08
-2.9507e-08
-1.34439e-08
-2.42057e-08
-1.23869e-08
-1.93639e-08
-1.12621e-08
-1.50046e-08
-1.008e-08
-1.11459e-08
-8.85246e-09
-7.80024e-09
-7.59309e-09
-4.97344e-09
-6.31725e-09
-2.66423e-09
-5.04253e-09
-8.63053e-10
-3.78921e-09
4.49093e-10
-2.58099e-09
1.302e-09
-1.4459e-09
1.73778e-09
-4.17418e-10
1.8128e-09
4.64205e-10
1.59935e-09
1.15044e-09
1.18776e-09
1.58337e-09
6.88442e-10
1.69558e-09
2.35149e-10
1.41239e-09
6.55228e-10
1.63713e-11
-5.08177e-10
-1.45817e-10
-4.87288e-10
-6.37005e-10
2.46492e-10
-1.56433e-09
1.46232e-09
-3.0023e-09
2.99457e-09
-4.99835e-09
4.7166e-09
-7.57758e-09
6.53285e-09
-1.07471e-08
8.37289e-09
-1.45e-08
1.01855e-08
-1.88183e-08
1.1934e-08
-2.36761e-08
1.35931e-08
-2.90417e-08
1.51456e-08
-3.48793e-08
1.65807e-08
-4.11507e-08
1.78925e-08
-4.7816e-08
1.90783e-08
-5.48351e-08
2.01381e-08
-6.21676e-08
2.10736e-08
-6.97739e-08
2.18878e-08
-7.76151e-08
2.25844e-08
-8.56533e-08
2.31677e-08
-9.38521e-08
2.36421e-08
-1.02176e-07
2.40119e-08
-1.10591e-07
2.42814e-08
-1.19063e-07
2.44546e-08
-1.27561e-07
2.45352e-08
-1.36054e-07
2.45262e-08
-1.44512e-07
2.44307e-08
-1.52906e-07
2.4251e-08
-1.61206e-07
2.39891e-08
-1.69384e-07
2.36466e-08
-1.77414e-07
2.32248e-08
-1.85266e-07
2.27248e-08
-1.92916e-07
2.21472e-08
-2.00335e-07
2.14926e-08
-2.07497e-07
2.07615e-08
-2.14376e-07
1.99543e-08
-2.20946e-07
1.90713e-08
-2.2718e-07
1.81131e-08
-2.33054e-07
1.70802e-08
-2.38541e-07
1.59736e-08
-2.43617e-07
1.47943e-08
-2.48259e-07
1.35439e-08
-2.52442e-07
1.22242e-08
-2.56145e-07
1.08377e-08
-2.59345e-07
9.38709e-09
-2.62023e-07
7.87586e-09
-2.64159e-07
6.30801e-09
-2.65738e-07
4.68814e-09
-2.66742e-07
3.02151e-09
-2.6716e-07
1.31402e-09
-2.66979e-07
-4.27771e-10
-2.66193e-07
-2.19668e-09
-2.64794e-07
-3.98487e-09
-2.62779e-07
-5.78391e-09
-2.60149e-07
-7.58481e-09
-2.56908e-07
-9.37805e-09
-2.53061e-07
-1.11537e-08
-2.48618e-07
-1.29012e-08
-2.43594e-07
-1.46101e-08
-2.38005e-07
-1.62694e-08
-2.31872e-07
-1.78679e-08
-2.25221e-07
-1.93946e-08
-2.18079e-07
-2.08385e-08
-2.10477e-07
-2.21887e-08
-2.02452e-07
-2.34345e-08
-1.94043e-07
-2.45659e-08
-1.85289e-07
-2.55732e-08
-1.76238e-07
-2.64474e-08
-1.66936e-07
-2.71804e-08
-1.57432e-07
-2.77648e-08
-1.4778e-07
-2.81942e-08
-1.38032e-07
-2.84633e-08
-1.28243e-07
-2.85682e-08
-1.18469e-07
-2.85058e-08
-1.08768e-07
-2.82747e-08
-9.91939e-08
-2.78748e-08
-8.9804e-08
-2.73074e-08
-8.06528e-08
-2.65752e-08
-7.17939e-08
-2.56825e-08
-6.32785e-08
-2.46353e-08
-5.51555e-08
-2.34409e-08
-4.74709e-08
-2.21083e-08
-4.02666e-08
-2.06482e-08
-3.35806e-08
-1.90729e-08
-2.7446e-08
-1.73967e-08
-2.18905e-08
-1.56355e-08
-1.69356e-08
-1.38074e-08
-1.25959e-08
-1.19328e-08
-8.87831e-09
-1.00348e-08
-5.78133e-09
-8.13952e-09
-3.29367e-09
-6.27687e-09
-1.39337e-09
-4.48129e-09
-4.64449e-11
-2.79283e-09
7.94493e-10
-1.25836e-09
1.19175e-09
6.69517e-11
1.22413e-09
1.11806e-09
9.88906e-10
1.81859e-09
6.0424e-10
2.08025e-09
2.13663e-10
1.80297e-09
8.68893e-10
-8.27849e-11
-4.25396e-10
-4.93878e-10
-7.61884e-11
-1.35744e-09
1.11006e-09
-2.76504e-09
2.86991e-09
-4.781e-09
5.01055e-09
-7.44611e-09
7.3817e-09
-1.07809e-08
9.8677e-09
-1.47893e-08
1.23813e-08
-1.94613e-08
1.48575e-08
-2.47763e-08
1.7249e-08
-3.07052e-08
1.95219e-08
-3.72126e-08
2.1653e-08
-4.42589e-08
2.3627e-08
-5.18014e-08
2.5435e-08
-5.97955e-08
2.70725e-08
-6.81959e-08
2.85385e-08
-7.6957e-08
2.98347e-08
-8.60334e-08
3.09643e-08
-9.53808e-08
3.19318e-08
-1.04956e-07
3.27425e-08
-1.14715e-07
3.34018e-08
-1.24619e-07
3.39154e-08
-1.34626e-07
3.42888e-08
-1.44699e-07
3.45271e-08
-1.54799e-07
3.46351e-08
-1.6489e-07
3.46171e-08
-1.74936e-07
3.44769e-08
-1.84903e-07
3.42177e-08
-1.94756e-07
3.38423e-08
-2.04462e-07
3.33528e-08
-2.13988e-07
3.27512e-08
-2.23302e-07
3.20387e-08
-2.32372e-07
3.12166e-08
-2.41165e-07
3.02858e-08
-2.4965e-07
2.92468e-08
-2.57797e-07
2.81005e-08
-2.65573e-07
2.68476e-08
-2.72949e-07
2.54888e-08
-2.79894e-07
2.40253e-08
-2.86379e-07
2.24584e-08
-2.92374e-07
2.07899e-08
-2.97852e-07
1.90221e-08
-3.02786e-07
1.71577e-08
-3.07148e-07
1.52003e-08
-3.10915e-07
1.31539e-08
-3.14063e-07
1.10235e-08
-3.1657e-07
8.81482e-09
-3.18416e-07
6.53445e-09
-3.19584e-07
4.1898e-09
-3.20059e-07
1.7892e-09
-3.19829e-07
-6.58132e-10
-3.18884e-07
-3.1421e-09
-3.17217e-07
-5.65176e-09
-3.14825e-07
-8.17534e-09
-3.1171e-07
-1.07003e-08
-3.07874e-07
-1.32134e-08
-3.03327e-07
-1.57009e-08
-2.9808e-07
-1.81482e-08
-2.9215e-07
-2.05406e-08
-2.85556e-07
-2.28631e-08
-2.78324e-07
-2.51002e-08
-2.70482e-07
-2.72366e-08
-2.62063e-07
-2.92571e-08
-2.53105e-07
-3.11467e-08
-2.43649e-07
-3.28908e-08
-2.33739e-07
-3.44755e-08
-2.23425e-07
-3.58875e-08
-2.12758e-07
-3.71144e-08
-2.01794e-07
-3.81449e-08
-1.9059e-07
-3.8969e-08
-1.79206e-07
-3.95779e-08
-1.67705e-07
-3.99644e-08
-1.5615e-07
-4.01229e-08
-1.44606e-07
-4.00495e-08
-1.33139e-07
-3.97422e-08
-1.21813e-07
-3.92007e-08
-1.10693e-07
-3.84271e-08
-9.98431e-08
-3.74252e-08
-8.93246e-08
-3.62011e-08
-7.9197e-08
-3.47629e-08
-6.95168e-08
-3.3121e-08
-6.03369e-08
-3.12881e-08
-5.17061e-08
-2.9279e-08
-4.3668e-08
-2.7111e-08
-3.62608e-08
-2.48039e-08
-2.95164e-08
-2.23799e-08
-2.34595e-08
-1.98642e-08
-1.81072e-08
-1.72851e-08
-1.34678e-08
-1.46743e-08
-9.53977e-09
-1.20675e-08
-6.31133e-09
-9.50531e-09
-3.75888e-09
-7.03374e-09
-1.8461e-09
-4.70561e-09
-5.227e-10
-2.58176e-09
2.76826e-10
-7.3257e-10
6.34591e-10
7.60296e-10
6.51065e-10
1.80211e-09
4.47518e-10
2.2838e-09
1.70086e-10
2.08041e-09
1.03898e-09
-1.8878e-10
-2.36617e-10
-8.71008e-10
6.06055e-10
-2.14057e-09
2.37961e-09
-4.06861e-09
4.79797e-09
-6.70517e-09
7.6471e-09
-1.00808e-08
1.07573e-08
-1.42086e-08
1.39955e-08
-1.90869e-08
1.72595e-08
-2.47013e-08
2.04719e-08
-3.10273e-08
2.3575e-08
-3.80322e-08
2.65268e-08
-4.56771e-08
2.92979e-08
-5.39184e-08
3.18684e-08
-6.27094e-08
3.42261e-08
-7.20016e-08
3.63646e-08
-8.17449e-08
3.82818e-08
-9.18891e-08
3.99789e-08
-1.02384e-07
4.14594e-08
-1.13181e-07
4.27284e-08
-1.2423e-07
4.3792e-08
-1.35485e-07
4.46567e-08
-1.46899e-07
4.53295e-08
-1.58428e-07
4.58168e-08
-1.70026e-07
4.61253e-08
-1.81651e-07
4.62607e-08
-1.93262e-07
4.62284e-08
-2.04819e-07
4.60333e-08
-2.1628e-07
4.56793e-08
-2.27608e-07
4.51701e-08
-2.38764e-07
4.45085e-08
-2.4971e-07
4.3697e-08
-2.60408e-07
4.27373e-08
-2.70823e-07
4.16311e-08
-2.80917e-07
4.03797e-08
-2.90654e-07
3.89841e-08
-2.99999e-07
3.74454e-08
-3.08916e-07
3.57647e-08
-3.1737e-07
3.39434e-08
-3.25328e-07
3.19829e-08
-3.32755e-07
2.98854e-08
-3.39619e-07
2.76534e-08
-3.45887e-07
2.52901e-08
-3.51528e-07
2.27994e-08
-3.56514e-07
2.01861e-08
-3.60816e-07
1.74558e-08
-3.64408e-07
1.46153e-08
-3.67265e-07
1.16722e-08
-3.69366e-07
8.63549e-09
-3.70691e-07
5.51497e-09
-3.71224e-07
2.32178e-09
-3.7095e-07
-9.31826e-10
-3.6986e-07
-4.23247e-09
-3.67946e-07
-7.56566e-09
-3.65205e-07
-1.09159e-08
-3.61639e-07
-1.42666e-08
-3.57252e-07
-1.76004e-08
-3.52054e-07
-2.08991e-08
-3.46059e-07
-2.41437e-08
-3.39284e-07
-2.73149e-08
-3.31755e-07
-3.03928e-08
-3.23497e-07
-3.33575e-08
-3.14545e-07
-3.61887e-08
-3.04935e-07
-3.88667e-08
-2.9471e-07
-4.13718e-08
-2.83916e-07
-4.3685e-08
-2.72603e-07
-4.5788e-08
-2.60827e-07
-4.76636e-08
-2.48646e-07
-4.92956e-08
-2.36122e-07
-5.06692e-08
-2.23319e-07
-5.17713e-08
-2.10307e-07
-5.25907e-08
-1.97153e-07
-5.31177e-08
-1.83931e-07
-5.33452e-08
-1.70712e-07
-5.32681e-08
-1.57571e-07
-5.28838e-08
-1.44579e-07
-5.21921e-08
-1.31811e-07
-5.11956e-08
-1.19337e-07
-4.98995e-08
-1.07226e-07
-4.83117e-08
-9.55457e-08
-4.64431e-08
-8.43594e-08
-4.43073e-08
-7.37264e-08
-4.19211e-08
-6.37015e-08
-3.9304e-08
-5.43336e-08
-3.64788e-08
-4.56659e-08
-3.34716e-08
-3.77343e-08
-3.03115e-08
-3.05668e-08
-2.70317e-08
-2.4183e-08
-2.36689e-08
-1.85928e-08
-2.02644e-08
-1.37959e-08
-1.68644e-08
-9.78073e-09
-1.35205e-08
-6.52327e-09
-1.02912e-08
-3.98647e-09
-7.2424e-09
-2.11906e-09
-4.44917e-09
-8.54502e-10
-1.99712e-09
-1.09912e-10
1.5702e-11
2.15389e-10
1.47681e-09
2.4188e-10
2.25732e-09
1.12712e-10
2.20957e-09
1.15169e-09
-2.97118e-10
6.05001e-11
-1.26177e-09
1.57071e-09
-2.95673e-09
4.07459e-09
-5.43041e-09
7.27164e-09
-8.71572e-09
1.09324e-08
-1.28304e-08
1.4872e-08
-1.77779e-08
1.8943e-08
-2.3549e-08
2.30307e-08
-3.01235e-08
2.70464e-08
-3.74719e-08
3.09234e-08
-4.55571e-08
3.4612e-08
-5.43363e-08
3.8077e-08
-6.3762e-08
4.12941e-08
-7.37838e-08
4.42479e-08
-8.43491e-08
4.69298e-08
-9.54038e-08
4.93366e-08
-1.06894e-07
5.14689e-08
-1.18765e-07
5.33302e-08
-1.30962e-07
5.49263e-08
-1.43434e-07
5.62639e-08
-1.56128e-07
5.73507e-08
-1.68993e-07
5.81945e-08
-1.8198e-07
5.88034e-08
-1.95039e-07
5.91847e-08
-2.08124e-07
5.93457e-08
-2.21189e-07
5.92927e-08
-2.34187e-07
5.90316e-08
-2.47075e-07
5.85673e-08
-2.59809e-07
5.7904e-08
-2.72346e-07
5.70456e-08
-2.84644e-07
5.59948e-08
-2.96661e-07
5.47542e-08
-3.08355e-07
5.33259e-08
-3.19687e-07
5.17114e-08
-3.30615e-07
4.99124e-08
-3.411e-07
4.79304e-08
-3.51103e-07
4.5767e-08
-3.60583e-07
4.34239e-08
-3.69504e-07
4.09036e-08
-3.77827e-07
3.82088e-08
-3.85517e-07
3.5343e-08
-3.92537e-07
3.23104e-08
-3.98854e-07
2.91162e-08
-4.04435e-07
2.57669e-08
-4.09249e-07
2.22697e-08
-4.13267e-07
1.86333e-08
-4.16462e-07
1.48678e-08
-4.18811e-07
1.09844e-08
-4.20292e-07
6.99603e-09
-4.20887e-07
2.91672e-09
-4.20581e-07
-1.23785e-09
-4.19363e-07
-5.45066e-09
-4.17225e-07
-9.70333e-09
-4.14165e-07
-1.39761e-08
-4.10183e-07
-1.82482e-08
-4.05286e-07
-2.24975e-08
-3.99484e-07
-2.67011e-08
-3.92793e-07
-3.0835e-08
-3.85233e-07
-3.48748e-08
-3.7683e-07
-3.87957e-08
-3.67615e-07
-4.25722e-08
-3.57625e-07
-4.61793e-08
-3.469e-07
-4.95918e-08
-3.35486e-07
-5.27851e-08
-3.23436e-07
-5.57354e-08
-3.10804e-07
-5.84196e-08
-2.97652e-07
-6.08161e-08
-2.84043e-07
-6.29046e-08
-2.70045e-07
-6.46666e-08
-2.55731e-07
-6.60856e-08
-2.41175e-07
-6.71473e-08
-2.26452e-07
-6.78399e-08
-2.11643e-07
-6.81543e-08
-1.96827e-07
-6.8084e-08
-1.82085e-07
-6.76259e-08
-1.67498e-07
-6.67798e-08
-1.53144e-07
-6.55489e-08
-1.39104e-07
-6.39398e-08
-1.25453e-07
-6.19626e-08
-1.12265e-07
-5.9631e-08
-9.96103e-08
-5.69622e-08
-8.75539e-08
-5.39774e-08
-7.61565e-08
-5.07014e-08
-6.54724e-08
-4.7163e-08
-5.55492e-08
-4.33947e-08
-4.6427e-08
-3.94338e-08
-3.81373e-08
-3.53214e-08
-3.07025e-08
-3.11037e-08
-2.41348e-08
-2.68321e-08
-1.84356e-08
-2.25636e-08
-1.35943e-08
-1.83618e-08
-9.58794e-09
-1.42976e-08
-6.37995e-09
-1.04504e-08
-3.9196e-09
-6.90951e-09
-2.14116e-09
-3.77556e-09
-9.63011e-10
-1.16245e-09
-2.86613e-10
8.00416e-10
4.63316e-12
1.96607e-09
4.71737e-11
2.16702e-09
1.19886e-09
-4.0528e-10
4.65773e-10
-1.65654e-09
2.82198e-09
-3.78644e-09
6.20448e-09
-6.81972e-09
1.03049e-08
-1.07707e-08
1.48834e-08
-1.56426e-08
1.97438e-08
-2.14274e-08
2.47278e-08
-2.81069e-08
2.97102e-08
-3.56537e-08
3.45931e-08
-4.40321e-08
3.93018e-08
-5.32002e-08
4.37802e-08
-6.31107e-08
4.79875e-08
-7.3712e-08
5.18954e-08
-8.49497e-08
5.54856e-08
-9.67673e-08
5.87475e-08
-1.09107e-07
6.16765e-08
-1.21911e-07
6.4273e-08
-1.35122e-07
6.65404e-08
-1.4868e-07
6.84847e-08
-1.6253e-07
7.01136e-08
-1.76615e-07
7.14356e-08
-1.9088e-07
7.24597e-08
-2.05271e-07
7.31949e-08
-2.19737e-07
7.365e-08
-2.34224e-07
7.38332e-08
-2.48683e-07
7.37519e-08
-2.63065e-07
7.3413e-08
-2.7732e-07
7.28223e-08
-2.91401e-07
7.19849e-08
-3.0526e-07
7.09052e-08
-3.18852e-07
6.95868e-08
-3.32131e-07
6.80327e-08
-3.4505e-07
6.62454e-08
-3.57566e-07
6.42273e-08
-3.69634e-07
6.19803e-08
-3.8121e-07
5.95064e-08
-3.92251e-07
5.68078e-08
-4.02714e-07
5.38871e-08
-4.12557e-07
5.07472e-08
-4.21741e-07
4.73919e-08
-4.30223e-07
4.38257e-08
-4.37967e-07
4.0054e-08
-4.44934e-07
3.60836e-08
-4.5109e-07
3.19225e-08
-4.564e-07
2.758e-08
-4.60834e-07
2.30669e-08
-4.64362e-07
1.83958e-08
-4.66958e-07
1.35807e-08
-4.686e-07
8.63759e-09
-4.69267e-07
3.58392e-09
-4.68944e-07
-1.561e-09
-4.67618e-07
-6.77618e-09
-4.65283e-07
-1.2039e-08
-4.61933e-07
-1.73252e-08
-4.57573e-07
-2.26092e-08
-4.52206e-07
-2.78639e-08
-4.45846e-07
-3.30612e-08
-4.38509e-07
-3.8172e-08
-4.30218e-07
-4.31662e-08
-4.21e-07
-4.80134e-08
-4.10889e-07
-5.26827e-08
-3.99925e-07
-5.71434e-08
-3.88152e-07
-6.13648e-08
-3.75621e-07
-6.53169e-08
-3.62385e-07
-6.89705e-08
-3.48507e-07
-7.22977e-08
-3.34052e-07
-7.52718e-08
-3.19088e-07
-7.78682e-08
-3.03691e-07
-8.00643e-08
-2.87936e-07
-8.18399e-08
-2.71906e-07
-8.31776e-08
-2.55683e-07
-8.4063e-08
-2.39352e-07
-8.44848e-08
-2.23001e-07
-8.44353e-08
-2.06716e-07
-8.39105e-08
-1.90586e-07
-8.29102e-08
-1.74697e-07
-8.14383e-08
-1.59134e-07
-7.95028e-08
-1.4398e-07
-7.71161e-08
-1.29317e-07
-7.42949e-08
-1.15218e-07
-7.10604e-08
-1.01758e-07
-6.74384e-08
-8.89998e-08
-6.34592e-08
-7.70048e-08
-5.9158e-08
-6.58248e-08
-5.45748e-08
-5.55041e-08
-4.97545e-08
-4.60779e-08
-4.47475e-08
-3.7572e-08
-3.96097e-08
-3.00013e-08
-3.44028e-08
-2.33695e-08
-2.91954e-08
-1.76682e-08
-2.40631e-08
-1.28761e-08
-1.90897e-08
-8.9584e-09
-1.43681e-08
-5.86633e-09
-1.00016e-08
-3.5363e-09
-6.10559e-09
-1.88957e-09
-2.80917e-09
-8.3166e-10
-2.57493e-10
-2.51863e-10
1.38626e-09
-2.28063e-11
1.93797e-09
1.17606e-09
-5.11881e-10
9.77658e-10
-2.04944e-09
4.35954e-09
-4.61696e-09
8.772e-09
-8.2157e-09
1.39037e-08
-1.28408e-08
1.95085e-08
-1.84797e-08
2.53827e-08
-2.51119e-08
3.136e-08
-3.27089e-08
3.73072e-08
-4.12349e-08
4.31191e-08
-5.06475e-08
4.87145e-08
-6.0899e-08
5.40316e-08
-7.19369e-08
5.90254e-08
-8.37054e-08
6.36639e-08
-9.61459e-08
6.79262e-08
-1.09198e-07
7.17998e-08
-1.22801e-07
7.52794e-08
-1.36893e-07
7.83646e-08
-1.51411e-07
8.1059e-08
-1.66296e-07
8.3369e-08
-1.81485e-07
8.53029e-08
-1.9692e-07
8.68703e-08
-2.12541e-07
8.80812e-08
-2.28292e-07
8.89456e-08
-2.44115e-07
8.94734e-08
-2.59956e-07
8.9674e-08
-2.7576e-07
8.95559e-08
-2.91474e-07
8.91268e-08
-3.07045e-07
8.83935e-08
-3.22422e-07
8.7362e-08
-3.37554e-07
8.60372e-08
-3.52391e-07
8.44235e-08
-3.66883e-07
8.25244e-08
-3.8098e-07
8.03432e-08
-3.94636e-07
7.78825e-08
-4.078e-07
7.51449e-08
-4.20427e-07
7.2133e-08
-4.32469e-07
6.88497e-08
-4.4388e-07
6.52981e-08
-4.54615e-07
6.14822e-08
-4.64629e-07
5.74066e-08
-4.73881e-07
5.3077e-08
-4.82327e-07
4.85003e-08
-4.89928e-07
4.36848e-08
-4.96646e-07
3.86404e-08
-5.02444e-07
3.33784e-08
-5.0729e-07
2.79122e-08
-5.11151e-07
2.22569e-08
-5.14e-07
1.64297e-08
-5.15812e-07
1.04496e-08
-5.16566e-07
4.33799e-09
-5.16245e-07
-1.88203e-09
-5.14836e-07
-8.18519e-09
-5.12331e-07
-1.45443e-08
-5.08725e-07
-2.09303e-08
-5.04022e-07
-2.73126e-08
-4.98227e-07
-3.36587e-08
-4.91354e-07
-3.99349e-08
-4.83419e-07
-4.61065e-08
-4.74448e-07
-5.21376e-08
-4.64469e-07
-5.79917e-08
-4.5352e-07
-6.36322e-08
-4.41641e-07
-6.90223e-08
-4.2888e-07
-7.41253e-08
-4.15292e-07
-7.89054e-08
-4.00934e-07
-8.33279e-08
-3.85873e-07
-8.73593e-08
-3.70177e-07
-9.0968e-08
-3.5392e-07
-9.41243e-08
-3.37183e-07
-9.68014e-08
-3.20048e-07
-9.89751e-08
-3.02601e-07
-1.00625e-07
-2.84931e-07
-1.01733e-07
-2.67131e-07
-1.02285e-07
-2.49292e-07
-1.02274e-07
-2.31509e-07
-1.01693e-07
-2.13876e-07
-1.00543e-07
-1.96486e-07
-9.88284e-08
-1.79431e-07
-9.65579e-08
-1.628e-07
-9.37467e-08
-1.4668e-07
-9.04148e-08
-1.31153e-07
-8.65872e-08
-1.16297e-07
-8.22948e-08
-1.02182e-07
-7.75738e-08
-8.88742e-08
-7.24659e-08
-7.64301e-08
-6.70189e-08
-6.48985e-08
-6.12861e-08
-5.4319e-08
-5.53271e-08
-4.47207e-08
-4.9208e-08
-3.6122e-08
-4.30015e-08
-2.85298e-08
-3.67877e-08
-2.19384e-08
-3.06545e-08
-1.63292e-08
-2.46989e-08
-1.16702e-08
-1.9027e-08
-7.91554e-09
-1.37563e-08
-5.00495e-09
-9.01617e-09
-2.86385e-09
-4.95027e-09
-1.40311e-09
-1.71824e-09
-5.19217e-10
5.02368e-10
-9.48449e-11
1.5136e-09
1.08121e-09
-6.16189e-10
1.59384e-09
-2.43695e-09
6.18031e-09
-5.44021e-09
1.17753e-08
-9.60448e-09
1.80679e-08
-1.49055e-08
2.48096e-08
-2.13148e-08
3.1792e-08
-2.87983e-08
3.88435e-08
-3.73164e-08
4.58253e-08
-4.68241e-08
5.26268e-08
-5.72715e-08
5.91619e-08
-6.86044e-08
6.53645e-08
-8.07648e-08
7.11858e-08
-9.3692e-08
7.65911e-08
-1.07323e-07
8.15575e-08
-1.21595e-07
8.60711e-08
-1.36441e-07
9.01257e-08
-1.51797e-07
9.37205e-08
-1.67597e-07
9.68594e-08
-1.83778e-07
9.95494e-08
-2.00274e-07
1.01799e-07
-2.17023e-07
1.0362e-07
-2.33964e-07
1.05021e-07
-2.51034e-07
1.06016e-07
-2.68174e-07
1.06614e-07
-2.85326e-07
1.06826e-07
-3.02432e-07
1.06662e-07
-3.19435e-07
1.0613e-07
-3.36279e-07
1.05238e-07
-3.5291e-07
1.03992e-07
-3.69272e-07
1.02399e-07
-3.85312e-07
1.00463e-07
-4.00977e-07
9.81894e-08
-4.16214e-07
9.55805e-08
-4.30972e-07
9.26402e-08
-4.45199e-07
8.93717e-08
-4.58844e-07
8.5778e-08
-4.71857e-07
8.18629e-08
-4.84189e-07
7.76302e-08
-4.95791e-07
7.30847e-08
-5.06617e-07
6.82324e-08
-5.1662e-07
6.308e-08
-5.25756e-07
5.7636e-08
-5.33982e-07
5.19104e-08
-5.41256e-07
4.5915e-08
-5.47541e-07
3.96636e-08
-5.52801e-07
3.31719e-08
-5.57002e-07
2.6458e-08
-5.60115e-07
1.95422e-08
-5.62112e-07
1.24473e-08
-5.62972e-07
5.19816e-09
-5.62677e-07
-2.17767e-09
-5.61211e-07
-9.65048e-09
-5.58567e-07
-1.71883e-08
-5.54741e-07
-2.4757e-08
-5.49733e-07
-3.23204e-08
-5.43551e-07
-3.98406e-08
-5.36208e-07
-4.7278e-08
-5.27723e-07
-5.45918e-08
-5.1812e-07
-6.17399e-08
-5.07432e-07
-6.86798e-08
-4.95696e-07
-7.53683e-08
-4.82956e-07
-8.17622e-08
-4.69263e-07
-8.78187e-08
-4.54673e-07
-9.34959e-08
-4.39248e-07
-9.87529e-08
-4.23057e-07
-1.0355e-07
-4.06173e-07
-1.07851e-07
-3.88676e-07
-1.11621e-07
-3.7065e-07
-1.14828e-07
-3.52182e-07
-1.17443e-07
-3.33363e-07
-1.19443e-07
-3.1429e-07
-1.20806e-07
-2.95058e-07
-1.21517e-07
-2.75767e-07
-1.21565e-07
-2.56518e-07
-1.20943e-07
-2.37409e-07
-1.19652e-07
-2.18541e-07
-1.17696e-07
-2.00013e-07
-1.15087e-07
-1.81919e-07
-1.11841e-07
-1.64352e-07
-1.07981e-07
-1.47401e-07
-1.03538e-07
-1.31149e-07
-9.85468e-08
-1.15673e-07
-9.30497e-08
-1.01044e-07
-8.70956e-08
-8.73227e-08
-8.07399e-08
-7.45638e-08
-7.4045e-08
-6.28109e-08
-6.708e-08
-5.20976e-08
-5.99213e-08
-4.24461e-08
-5.26529e-08
-3.3867e-08
-4.53668e-08
-2.63581e-08
-3.81634e-08
-1.99045e-08
-3.11525e-08
-1.44776e-08
-2.44539e-08
-1.00354e-08
-1.81985e-08
-6.52194e-09
-1.25296e-08
-3.8676e-09
-7.6046e-09
-1.98943e-09
-3.59641e-09
-7.91754e-10
-6.95308e-10
-1.67434e-10
8.89275e-10
9.13771e-10
-7.17846e-10
2.31169e-09
-2.81705e-09
8.27952e-09
-6.25116e-09
1.52093e-08
-1.09769e-08
2.27937e-08
-1.69512e-08
3.07839e-08
-2.41292e-08
3.89699e-08
-3.24629e-08
4.71772e-08
-4.19012e-08
5.52636e-08
-5.23893e-08
6.31149e-08
-6.38689e-08
7.06415e-08
-7.62789e-08
7.77744e-08
-8.95553e-08
8.44622e-08
-1.03632e-07
9.06682e-08
-1.18443e-07
9.6368e-08
-1.33918e-07
1.01547e-07
-1.4999e-07
1.06198e-07
-1.6659e-07
1.1032e-07
-1.83649e-07
1.13919e-07
-2.011e-07
1.17e-07
-2.18875e-07
1.19574e-07
-2.36908e-07
1.21653e-07
-2.55135e-07
1.23248e-07
-2.73491e-07
1.24372e-07
-2.91914e-07
1.25037e-07
-3.10341e-07
1.25254e-07
-3.28713e-07
1.25033e-07
-3.46968e-07
1.24385e-07
-3.65049e-07
1.23318e-07
-3.82896e-07
1.2184e-07
-4.00453e-07
1.19956e-07
-4.17662e-07
1.17672e-07
-4.34467e-07
1.14995e-07
-4.50813e-07
1.11926e-07
-4.66644e-07
1.08471e-07
-4.81905e-07
1.04633e-07
-4.96544e-07
1.00417e-07
-5.10506e-07
9.58252e-08
-5.2374e-07
9.0864e-08
-5.36194e-07
8.55387e-08
-5.47818e-07
7.98563e-08
-5.58563e-07
7.38251e-08
-5.68382e-07
6.7455e-08
-5.7723e-07
6.07579e-08
-5.85062e-07
5.37476e-08
-5.91839e-07
4.64404e-08
-5.97522e-07
3.88546e-08
-6.02075e-07
3.10115e-08
-6.05468e-07
2.29347e-08
-6.07671e-07
1.46505e-08
-6.08661e-07
6.18811e-09
-6.08418e-07
-2.42071e-09
-6.06927e-07
-1.11415e-08
-6.04178e-07
-1.99372e-08
-6.00167e-07
-2.87683e-08
-5.94894e-07
-3.75931e-08
-5.88367e-07
-4.63677e-08
-5.80598e-07
-5.50463e-08
-5.71608e-07
-6.35819e-08
-5.61422e-07
-7.19259e-08
-5.50073e-07
-8.0029e-08
-5.376e-07
-8.78415e-08
-5.24049e-07
-9.53135e-08