/*--------------------------------*- C++ -*----------------------------------*\
| =========                 |                                                 |
| \\      /  F ield         | OpenFOAM: The Open Source CFD Toolbox           |
|  \\    /   O peration     | Version:  2512                                  |
|   \\  /    A nd           | Website:  www.openfoam.com                      |
|    \\/     M anipulation  |                                                 |
\*---------------------------------------------------------------------------*/
FoamFile
{
    version     2.0;
    format      ascii;
    arch        "LSB;label=32;scalar=64";
    class       volScalarField;
    location    "0.3";
    object      p;
}
// * * * * * * * * * * * * * * * * * * * * * * * * * * * * * * * * * * * * * //

dimensions      [0 2 -2 0 0 0 0];

internalField   nonuniform List<scalar> 
10000
(
-6.24787e-09
9.89299e-06
1.32766e-05
2.70892e-05
3.51996e-05
2.55874e-05
-2.4429e-06
-4.5283e-05
-9.93549e-05
-0.000161118
-0.000226416
-0.000291838
-0.000355055
-0.000413686
-0.000465818
-0.000510402
-0.000545427
-0.000570252
-0.000584578
-0.00058752
-0.000578359
-0.000556954
-0.000523413
-0.000477648
-0.00041944
-0.000348637
-0.000265116
-0.000168629
-5.91136e-05
6.31095e-05
0.000197675
0.000344462
0.000503344
0.000673931
0.000855849
0.00104912
0.00125399
0.00147041
0.00169791
0.00193594
0.00218413
0.00244215
0.00270939
0.00298519
0.00326905
0.00356059
0.00385922
0.00416388
0.00447334
0.00478656
0.00510281
0.00542126
0.00574074
0.00605982
0.00637696
0.00669081
0.00700028
0.00730433
0.00760191
0.00789199
0.00817346
0.008445
0.00870505
0.00895197
0.00918437
0.00940126
0.00960198
0.00978597
0.00995251
0.0101006
0.0102291
0.0103375
0.0104255
0.0104932
0.0105406
0.0105678
0.0105751
0.0105632
0.010533
0.0104852
0.0104207
0.0103401
0.0102446
0.0101355
0.0100145
0.00988361
0.00974491
0.00960062
0.00945298
0.00930457
0.00915842
0.00901793
0.00888651
0.0087675
0.00866425
0.00858024
0.00851879
0.00848257
0.00847296
0.00848304
6.46433e-06
6.26064e-05
9.09041e-05
0.000112199
0.000121682
0.000112699
8.76271e-05
5.02497e-05
3.81813e-06
-4.86795e-05
-0.000104282
-0.000160015
-0.000213183
-0.000262249
-0.000305835
-0.000342157
-0.000370001
-0.000388763
-0.000397774
-0.000396427
-0.00038413
-0.000360527
-0.000325394
-0.000278462
-0.00021962
-0.000148863
-6.60389e-05
2.9037e-05
0.000136272
0.000255346
0.000386092
0.000528574
0.000682692
0.000847998
0.0010241
0.00121102
0.00140896
0.00161778
0.001837
0.0020662
0.00230514
0.0025534
0.00281034
0.00307531
0.00334784
0.00362757
0.00391384
0.00420555
0.00450167
0.00480145
0.00510417
0.00540878
0.00571398
0.00601842
0.00632087
0.00662025
0.00691554
0.00720561
0.00748931
0.00776569
0.00803391
0.00829276
0.00854068
0.00877604
0.00899759
0.0092045
0.00939618
0.00957208
0.0097315
0.00987352
0.00999723
0.0101021
0.0101878
0.0102546
0.0103024
0.0103313
0.0103417
0.0103343
0.0103101
0.0102697
0.0102138
0.010143
0.0100584
0.00996141
0.00985364
0.00973704
0.00961361
0.00948528
0.00935408
0.00922233
0.00909282
0.00896868
0.00885304
0.00874876
0.00865844
0.0085846
0.00852957
0.0084952
0.00848397
0.00849421
6.41493e-05
0.000139865
0.000178076
0.000201039
0.000208967
0.000199143
0.000175248
0.0001406
9.87528e-05
5.21169e-05
2.78012e-06
-4.61272e-05
-9.26076e-05
-0.000135068
-0.00017212
-0.000202438
-0.000225156
-0.000239028
-0.000243781
-0.000238925
-0.000223872
-0.000198385
-0.000162014
-0.000114318
-5.5214e-05
1.53223e-05
9.75046e-05
0.000191416
0.000296801
0.000413346
0.00054102
0.000679948
0.000829959
0.00099062
0.00116172
0.00134334
0.00153553
0.00173801
0.0019503
0.00217218
0.00240344
0.00264354
0.0028918
0.00314776
0.00341106
0.00368122
0.00395737
0.00423842
0.00452355
0.00481232
0.00510407
0.00539755
0.00569127
0.00598395
0.00627458
0.00656228
0.00684606
0.00712481
0.0073974
0.007663
0.00792081
0.00816966
0.00840792
0.00863401
0.00884687
0.00904589
0.00923055
0.0094002
0.00955405
0.00969125
0.00981108
0.00991312
0.00999719
0.0100632
0.0101113
0.0101414
0.010154
0.0101501
0.0101304
0.0100956
0.0100463
0.00998296
0.0099066
0.00981865
0.00972088
0.00961507
0.009503
0.00938642
0.00926724
0.00914763
0.00903018
0.00891773
0.00881311
0.00871884
0.00863707
0.00856978
0.00851884
0.00848603
0.00847507
0.00848742
0.000191275
0.000257984
0.000290424
0.00030525
0.000305874
0.000292013
0.000265869
0.000231174
0.000191078
0.000147028
0.000101821
5.73409e-05
1.52179e-05
-2.26109e-05
-5.49834e-05
-8.10019e-05
-9.97679e-05
-0.000110163
-0.000111688
-0.000103888
-8.64892e-05
-5.92413e-05
-2.16424e-05
2.66428e-05
8.57169e-05
0.000155838
0.000237288
0.000329966
0.000433543
0.000547899
0.00067311
0.000809068
0.000955408
0.00111187
0.00127853
0.00145553
0.00164268
0.00183958
0.00204594
0.0022616
0.00248622
0.00271917
0.00295988
0.0032081
0.00346353
0.00372549
0.00399297
0.00426494
0.00454083
0.00482031
0.00510266
0.00538655
0.00567057
0.00595353
0.00623446
0.00651242
0.0067865
0.00705571
0.00731912
0.00757596
0.00782538
0.00806607
0.00829633
0.00851474
0.00872047
0.00891309
0.00909212
0.00925677
0.00940614
0.00953942
0.0096561
0.00975586
0.00983852
0.00990392
0.00995201
0.00998302
0.0099975
0.00999627
0.00998015
0.00994969
0.0099053
0.00984754
0.00977744
0.00969649
0.00960641
0.00950886
0.00940536
0.00929751
0.00918712
0.00907635
0.00896764
0.00886354
0.00876649
0.00867871
0.00860213
0.00853852
0.00848957
0.00845706
0.00844514
0.00845624
0.000358196
0.000401094
0.000418491
0.000420899
0.000412326
0.000391575
0.000361927
0.000325743
0.000285263
0.000242834
0.000199902
0.000158389
0.000119839
8.54881e-05
5.67689e-05
3.41561e-05
1.87717e-05
1.12725e-05
1.22914e-05
2.23133e-05
4.15806e-05
7.04385e-05
0.000109188
0.000157983
0.000217089
0.000286905
0.000367554
0.000458802
0.00056047
0.000672682
0.000795494
0.00092854
0.00107138
0.00122396
0.00138651
0.00155905
0.00174126
0.00193285
0.00213365
0.00234347
0.00256181
0.002788
0.00302174
0.00326286
0.00351089
0.00376498
0.00402422
0.00428783
0.00455537
0.00482641
0.00510003
0.00537491
0.00564985
0.00592393
0.00619614
0.00646536
0.00673062
0.00699116
0.00724627
0.00749525
0.00773711
0.00797041
0.00819347
0.00840503
0.00860448
0.00879146
0.00896543
0.00912555
0.0092709
0.00940077
0.0095147
0.00961246
0.00969382
0.00975855
0.00980659
0.00983826
0.00985425
0.00985541
0.00984235
0.00981547
0.00977513
0.00972196
0.00965709
0.00958203
0.00949839
0.00940768
0.00931126
0.00921053
0.00910722
0.00900346
0.00890161
0.00880395
0.00871255
0.00862931
0.00855594
0.00849413
0.00844549
0.00841173
0.00839652
0.00840212
0.000541436
0.000554387
0.000552665
0.000541796
0.000522111
0.000494104
0.000459585
0.000420545
0.00037894
0.000336621
0.000294828
0.000255227
0.000219095
0.000187338
0.000161298
0.000141542
0.00012885
0.00012383
0.000127054
0.000138851
0.000159589
0.000189649
0.000229182
0.000278351
0.000337547
0.000407059
0.000486823
0.00057666
0.000676605
0.000786796
0.000907107
0.00103715
0.00117666
0.00132576
0.00148452
0.00165278
0.0018303
0.00201694
0.00221257
0.00241682
0.00262916
0.00284911
0.00307653
0.0033112
0.00355235
0.00379904
0.00405057
0.00430651
0.0045665
0.00482991
0.0050956
0.00536228
0.005629
0.00589502
0.00615932
0.00642067
0.00667811
0.00693102
0.00717886
0.00742089
0.00765597
0.00788258
0.00809919
0.00830478
0.00849885
0.00868098
0.0088505
0.00900652
0.00914828
0.00927518
0.0093868
0.00948282
0.00956296
0.00962697
0.00967485
0.00970699
0.00972419
0.00972725
0.00971668
0.0096927
0.00965561
0.00960616
0.00954557
0.00947531
0.00939687
0.00931158
0.00922068
0.00912551
0.00902773
0.00892935
0.00883257
0.00873949
0.00865192
0.00857141
0.00849949
0.00843776
0.00838783
0.00835123
0.00833061
0.00832748
0.000729962
0.000712516
0.000690451
0.000664742
0.000633942
0.000597443
0.000556861
0.000514179
0.00047069
0.000427265
0.000385498
0.000346756
0.000311962
0.000282025
0.000257702
0.000240065
0.000229394
0.000226322
0.000231308
0.00024459
0.000266589
0.000297528
0.000337513
0.00038691
0.000446094
0.000515084
0.000593779
0.000682269
0.000780702
0.000888979
0.00100678
0.00113387
0.0012703
0.00141615
0.00157131
0.00173551
0.00190868
0.00209081
0.00228163
0.00248064
0.00268739
0.00290166
0.00312338
0.00335211
0.00358688
0.0038268
0.00407144
0.00432055
0.00457369
0.0048301
0.00508862
0.00534808
0.00560765
0.00586659
0.00612383
0.00637814
0.00662873
0.00687511
0.00711675
0.00735276
0.00758189
0.00780263
0.00801364
0.00821411
0.00840363
0.00858168
0.0087474
0.0088999
0.00903855
0.00916292
0.0092726
0.00936713
0.00944611
0.00950935
0.00955696
0.00958943
0.00960756
0.00961206
0.00960334
0.00958155
0.00954696
0.0095004
0.00944314
0.00937663
0.00930216
0.00922088
0.00913395
0.00904276
0.00894895
0.00885441
0.00876108
0.00867083
0.00858527
0.00850576
0.00843367
0.00837048
0.00831777
0.00827689
0.00824917
0.00823513
0.000918024
0.000871656
0.000829068
0.000788287
0.000745781
0.000700104
0.000652872
0.00060553
0.000558934
0.000513801
0.000471273
0.000432516
0.000398153
0.000369101
0.000345979
0.000329638
0.000320392
0.000318654
0.000324849
0.000339329
0.000362271
0.00039376
0.000434076
0.00048363
0.000542574
0.000610808
0.000688382
0.000775575
0.000872477
0.000978773
0.00109412
0.00121852
0.00135213
0.00149489
0.00164653
0.00180691
0.00197611
0.00215406
0.00234033
0.00253444
0.00273614
0.00294536
0.0031619
0.00338507
0.00361387
0.00384767
0.00408628
0.00432942
0.00457644
0.00482648
0.00507855
0.00533167
0.00558507
0.00583789
0.00608896
0.00633714
0.00658185
0.00682274
0.00705915
0.00729
0.00751397
0.0077297
0.00793603
0.00813227
0.008318
0.0084926
0.00865512
0.00880468
0.00894077
0.00906308
0.00917115
0.00926438
0.00934226
0.00940468
0.00945193
0.00948461
0.00950343
0.00950898
0.00950154
0.00948127
0.00944848
0.00940403
0.0093492
0.00928537
0.00921368
0.00913512
0.00905081
0.00896216
0.00887089
0.00877874
0.0086874
0.00859845
0.00851327
0.00843318
0.00835944
0.00829345
0.00823668
0.00819027
0.00815419
0.00812788
0.0011013
0.00102831
0.000966211
0.000910643
0.000855606
0.00080051
0.000746247
0.000693306
0.000642602
0.000595081
0.000551108
0.000511416
0.00047687
0.000448006
0.000425584
0.00040991
0.000401506
0.000400645
0.000407668
0.000422902
0.000446351
0.000478153
0.000518698
0.000568201
0.000626608
0.000693962
0.000770519
0.000856467
0.000951673
0.00105584
0.00116886
0.00129086
0.00142183
0.00156155
0.00170985
0.00186673
0.00203227
0.00220627
0.00238821
0.00257778
0.00277499
0.00297974
0.00319154
0.00340954
0.00363288
0.00386123
0.00409456
0.00433245
0.00457402
0.00481842
0.00506485
0.00531249
0.00556056
0.0058081
0.00605387
0.0062969
0.00653676
0.00677315
0.00700522
0.0072317
0.00745129
0.00766287
0.00786546
0.00805839
0.00824109
0.00841284
0.00857271
0.00871991
0.00885403
0.00897474
0.00908151
0.0091736
0.00925049
0.00931213
0.00935899
0.00939175
0.00941103
0.00941724
0.00941059
0.00939123
0.0093596
0.00931656
0.00926332
0.00920113
0.00913103
0.00905397
0.00897106
0.00888374
0.00879371
0.00870262
0.00861191
0.00852285
0.00843665
0.00835458
0.0082779
0.00820792
0.00814598
0.00809303
0.0080477
0.00800835
0.00127658
0.00117956
0.0010992
0.00102878
0.000961806
0.000896992
0.000834992
0.000776136
0.000721005
0.000670008
0.000623797
0.000582709
0.000547362
0.000518163
0.000495728
0.000480327
0.00047229
0.000471906
0.000479458
0.000494997
0.000518594
0.000550572
0.000591141
0.000640226
0.000697852
0.000764331
0.00083992
0.00092453
0.0010179
0.00111996
0.00123084
0.00135058
0.00147897
0.00161575
0.00176093
0.00191461
0.00207675
0.00224697
0.00242484
0.00261034
0.00280356
0.00300423
0.00321162
0.00342489
0.00364341
0.00386703
0.00409573
0.00432892
0.00456565
0.00480517
0.00504685
0.00528989
0.00553342
0.00577642
0.00601776
0.00625661
0.00649266
0.00672549
0.00695405
0.00717695
0.00739301
0.00760132
0.00780109
0.00799155
0.00817196
0.00834149
0.0084993
0.00864476
0.00877747
0.00889705
0.00900281
0.00909395
0.00916998
0.00923099
0.00927755
0.00931033
0.00932985
0.00933635
0.00933
0.00931102
0.00927994
0.00923764
0.00918521
0.0091237
0.00905411
0.00897739
0.00889474
0.00880764
0.00871771
0.00862646
0.00853508
0.00844461
0.00835613
0.00827086
0.00819011
0.00811511
0.00804708
0.00798679
0.00793161
0.00787886
0.00144249
0.00132311
0.00122546
0.00114151
0.0010624
0.000987646
0.000917792
0.000852824
0.000792822
0.000737926
0.000688833
0.000645793
0.000609038
0.000579109
0.000556039
0.000540366
0.000532353
0.000532108
0.000539725
0.000555238
0.000578854
0.000610793
0.000651001
0.000699397
0.000756209
0.000821804
0.000896253
0.000979318
0.00107086
0.00117099
0.00127987
0.00139738
0.00152321
0.00165721
0.00179955
0.00195025
0.00210908
0.00227569
0.00244988
0.00263181
0.00282148
0.00301833
0.00322156
0.00343055
0.00364491
0.00386453
0.00408919
0.00431818
0.00455063
0.00478601
0.0050238
0.00526307
0.0055028
0.00574202
0.00597981
0.00621549
0.00644869
0.0066788
0.00690462
0.00712475
0.00733818
0.0075442
0.00774204
0.00793081
0.00810961
0.00827758
0.008434
0.00857832
0.00871019
0.00882908
0.00893416
0.00902458
0.00909996
0.00916055
0.00920697
0.00923978
0.00925933
0.00926578
0.0092593
0.00924022
0.00920914
0.00916693
0.00911452
0.00905282
0.00898275
0.00890534
0.00882191
0.00873399
0.00864311
0.00855055
0.0084573
0.00836423
0.00827234
0.00818285
0.00809707
0.00801615
0.00794124
0.00787299
0.00780756
0.00774131
0.001598
0.0014575
0.00134374
0.00124694
0.00115618
0.00107147
0.000993517
0.000922178
0.000856862
0.000797808
0.000745428
0.000699956
0.000661368
0.000630063
0.000606095
0.00058976
0.000581318
0.00058079
0.000588099
0.000603384
0.000626837
0.000658381
0.000697885
0.000745502
0.00080154
0.000866134
0.000939173
0.00102054
0.00111035
0.00120874
0.00131568
0.0014309
0.00155422
0.0016857
0.00182543
0.00197325
0.00212886
0.00229209
0.00246302
0.0026418
0.0028282
0.00302146
0.00322087
0.00342609
0.00363689
0.00385306
0.00407419
0.00429952
0.00452835
0.00476034
0.00499498
0.00523117
0.00546781
0.00570407
0.00593923
0.0061727
0.00640393
0.0066321
0.00685591
0.00707409
0.00728584
0.00749054
0.00768732
0.00787513
0.00805297
0.00822007
0.00837579
0.00851966
0.00865122
0.00876983
0.00887455
0.00896455
0.0090396
0.00910005
0.0091465
0.00917934
0.00919874
0.00920482
0.00919785
0.00917828
0.00914675
0.00910401
0.00905087
0.00898814
0.00891671
0.00883771
0.00875258
0.00866287
0.00857
0.00847505
0.00837881
0.00828206
0.00818576
0.00809116
0.00799954
0.00791198
0.00782955
0.00775282
0.00767685
0.00759713
0.0017418
0.00158191
0.00145248
0.00134311
0.00124164
0.00114727
0.00106101
0.000982879
0.000912177
0.0008487
0.000792668
0.000744307
0.000703618
0.000670432
0.000645189
0.00062797
0.000618763
0.000617513
0.000624258
0.000639173
0.000662148
0.00069291
0.000731527
0.000778361
0.000833545
0.000896904
0.00096834
0.00104804
0.00113625
0.00123295
0.00133787
0.00145081
0.00157181
0.00170096
0.00183819
0.00198317
0.0021357
0.00229591
0.00246398
0.00263988
0.00282316
0.00301304
0.00320906
0.00341109
0.00361888
0.00383201
0.00405
0.00427222
0.00449815
0.00472751
0.00495965
0.00519339
0.00542763
0.00566177
0.00589525
0.00612739
0.00635743
0.00658437
0.00680692
0.00702401
0.00723503
0.00743934
0.0076359
0.00782345
0.00800101
0.00816793
0.00832369
0.00846777
0.00859955
0.00871826
0.00882296
0.00891294
0.00898806
0.00904869
0.00909533
0.00912817
0.00914726
0.00915271
0.00914496
0.00912459
0.00909221
0.00904843
0.00899388
0.00892931
0.0088557
0.00877432
0.00868666
0.00859427
0.00849844
0.00840005
0.00829979
0.00819839
0.00809682
0.00799633
0.00789819
0.00780336
0.00771287
0.00762722
0.0075405
0.00744745
0.001873
0.00169493
0.00155052
0.001429
0.00131702
0.00121344
0.00111911
0.001034
0.000957651
0.000889574
0.0008298
0.000778195
0.000734815
0.000699652
0.000672867
0.000654345
0.000643987
0.00064182
0.000647921
0.000662158
0.000684216
0.000714003
0.00075178
0.000797738
0.000851741
0.000913607
0.000983473
0.00106167
0.00114832
0.0012432
0.00134604
0.00145685
0.00157574
0.00170268
0.00183739
0.00197958
0.00212931
0.00228689
0.0024524
0.00262555
0.0028058
0.00299259
0.00318573
0.00338512
0.00359031
0.00380074
0.00401602
0.00423572
0.00445946
0.00468685
0.00491709
0.00514895
0.00538152
0.00561442
0.00584711
0.00607872
0.00630824
0.00653461
0.00675671
0.00697365
0.00718486
0.00738964
0.00758672
0.00777473
0.00795272
0.00812022
0.00827677
0.00842169
0.00855418
0.00867338
0.00877844
0.00886884
0.00894447
0.00900564
0.00905261
0.00908543
0.00910408
0.00910875
0.00910003
0.0090786
0.00904503
0.00899974
0.00894318
0.00887611
0.0087996
0.00871509
0.00862415
0.00852824
0.00842851
0.00832571
0.00822049
0.00811357
0.00800597
0.00789892
0.00779363
0.00769099
0.00759194
0.00749698
0.00739938
0.00729321
0.00199037
0.00179509
0.00163684
0.00150363
0.00138132
0.00126879
0.0011665
0.00107451
0.000992427
0.000919547
0.00085565
0.000800694
0.000754465
0.000717118
0.000688408
0.000668206
0.000656529
0.000653365
0.000658527
0.000671637
0.000692547
0.00072141
0.000758316
0.000803095
0.000855581
0.000915893
0.000984354
0.00106114
0.00114611
0.00123903
0.00133987
0.00144876
0.0015657
0.00169041
0.00182257
0.00196215
0.00210943
0.00226471
0.00242779
0.00259825
0.00277566
0.00295976
0.0031505
0.00334767
0.00355058
0.00375864
0.0039717
0.00418953
0.00441172
0.00463769
0.00486653
0.00509713
0.00532882
0.00556136
0.00579409
0.00602583
0.00625542
0.0064819
0.00670439
0.00692213
0.00713445
0.00734044
0.00753873
0.00772792
0.00790717
0.00807606
0.0082341
0.00838046
0.00851413
0.00863425
0.00874014
0.00883143
0.00890805
0.00897006
0.00901752
0.00905032
0.00906849
0.00907238
0.00906265
0.00904
0.0090049
0.00895762
0.00889854
0.00882839
0.0087484
0.00866012
0.00856517
0.00846492
0.0083604
0.00825229
0.00814123
0.00802802
0.00791371
0.0077995
0.00768651
0.00757551
0.00746743
0.00736283
0.00725426
0.00713521
0.00209228
0.0018815
0.0017103
0.00156581
0.00143323
0.001312
0.00120219
0.00110349
0.00101546
0.000937614
0.000869471
0.000810989
0.000761878
0.000721963
0.000691041
0.000669051
0.000655949
0.000651522
0.000655326
0.000667063
0.000686832
0.000714726
0.000750465
0.000793739
0.000844633
0.000903525
0.000970653
0.0010459
0.00112903
0.00122003
0.00131906
0.00142619
0.00154115
0.00166355
0.00179328
0.00193057
0.00207573
0.00222884
0.0023895
0.00255735
0.00273228
0.00291418
0.00310295
0.00329813
0.003499
0.00370512
0.00391656
0.00413316
0.00435431
0.00457929
0.00480724
0.00503727
0.00526892
0.00550191
0.00573534
0.00596778
0.00619805
0.00642539
0.00664917
0.00686861
0.00708285
0.00729076
0.00749093
0.00768207
0.00786343
0.00803455
0.00819479
0.0083431
0.00847844
0.0086
0.00870729
0.00880004
0.00887807
0.00894123
0.0089893
0.00902216
0.00903992
0.00904312
0.00903244
0.00900848
0.00897156
0.00892186
0.00885975
0.00878606
0.00870211
0.00860952
0.00850988
0.0084045
0.00829433
0.00818006
0.00806236
0.00794214
0.00782048
0.00769855
0.00757731
0.00745742
0.00733984
0.00722531
0.00710573
0.00697399
0.00217886
0.00195302
0.00176941
0.00161433
0.00147199
0.00134212
0.00122484
0.0011196
0.00102577
0.000942864
0.000870475
0.000808272
0.00075607
0.000713357
0.000680098
0.000656247
0.000641492
0.000635389
0.00063757
0.000647975
0.000666611
0.000693215
0.000727382
0.000769042
0.000818516
0.000876102
0.000941754
0.00101524
0.00109654
0.00118583
0.00128323
0.00138857
0.00150141
0.00162152
0.00174909
0.00188443
0.00202765
0.00217857
0.00233681
0.00250231
0.0026752
0.00285535
0.00304241
0.0032358
0.00343492
0.00363961
0.00385006
0.00406596
0.00428647
0.00451085
0.00473847
0.00496872
0.00520115
0.00543526
0.0056699
0.00590357
0.00613519
0.00636424
0.00659018
0.00681213
0.007029
0.00723949
0.00744227
0.0076362
0.00782056
0.00799472
0.00815779
0.0083086
0.00844612
0.00856971
0.00867905
0.00877385
0.00885375
0.00891832
0.00896721
0.0090003
0.00901786
0.00902052
0.00900897
0.00898362
0.00894463
0.00889212
0.00882657
0.00874894
0.00866066
0.00856331
0.00845838
0.0083471
0.00823044
0.00810918
0.0079841
0.00785619
0.00772658
0.00759635
0.0074663
0.007337
0.00720951
0.0070848
0.00695413
0.00680981
0.00224955
0.00200862
0.00181328
0.0016482
0.00149645
0.0013581
0.00123349
0.00112173
0.00102219
0.000934276
0.000857612
0.000791639
0.000736019
0.000690468
0.000654878
0.000628944
0.00061215
0.000604088
0.000604651
0.000613755
0.000631004
0.000655909
0.000688336
0.000728526
0.000776723
0.000832881
0.000896808
0.00096848
0.00104812
0.0011359
0.00123166
0.00133503
0.00144571
0.00156376
0.00168951
0.00182308
0.00196432
0.002113
0.00226901
0.00243256
0.00260384
0.0027825
0.00296799
0.00315983
0.00335767
0.00356152
0.00377149
0.00398705
0.00420724
0.00443148
0.00465946
0.00489071
0.00512462
0.00536039
0.0055967
0.00583215
0.00606587
0.00629751
0.00652644
0.00675159
0.00697168
0.00718543
0.00739164
0.00758927
0.00777749
0.00795543
0.00812194
0.00827581
0.00841613
0.00854246
0.00865453
0.00875195
0.00883412
0.0089004
0.00895038
0.00898401
0.00900168
0.00900403
0.00899163
0.00896477
0.00892347
0.00886788
0.0087986
0.00871678
0.00862386
0.00852134
0.00841056
0.00829269
0.00816876
0.00803973
0.00790655
0.00777032
0.00763214
0.00749302
0.00735358
0.00721436
0.00707659
0.00694145
0.00679958
0.00664272
0.00230335
0.00204778
0.0018408
0.0016662
0.00150554
0.00135903
0.00122715
0.00110895
0.00100378
0.000910976
0.000829842
0.000759988
0.000700946
0.000652573
0.000614468
0.00058609
0.000567014
0.000557028
0.000556007
0.00056352
0.000578939
0.000601981
0.000632832
0.000671696
0.000718469
0.000772915
0.000835019
0.000905043
0.00098323
0.00106946
0.00116336
0.00126464
0.00137333
0.00148965
0.00161376
0.0017455
0.00188465
0.0020312
0.00218535
0.0023474
0.00251732
0.00269458
0.00287867
0.00306934
0.00326646
0.00347001
0.00367987
0.00389535
0.00411559
0.00434031
0.00456939
0.00480233
0.00503826
0.00527611
0.00551458
0.00575247
0.00598914
0.00622419
0.00645683
0.00668577
0.00690968
0.00712743
0.00733795
0.00754018
0.00773305
0.00791541
0.00808598
0.00824357
0.00838744
0.00851728
0.00863278
0.00873336
0.00881819
0.00888652
0.00893795
0.00897254
0.0089907
0.00899297
0.00897976
0.00895122
0.0089074
0.00884854
0.0087754
0.00868921
0.0085914
0.00848332
0.00836619
0.00824112
0.00810924
0.00797174
0.00782982
0.00768463
0.00753727
0.0073886
0.0072392
0.00708958
0.00694115
0.00679535
0.00664215
0.00647272
0.00233959
0.00206982
0.00185138
0.00166748
0.00149822
0.0013438
0.00120481
0.00108037
0.000969621
0.000871845
0.000786236
0.000712454
0.000650132
0.000598773
0.000557776
0.000526737
0.000505438
0.000493612
0.000490747
0.000496198
0.000509572
0.000530915
0.00056035
0.000597721
0.00064273
0.000695321
0.000755765
0.000824333
0.000901001
0.00098542
0.00107727
0.00117659
0.00128358
0.00139833
0.00152073
0.00165049
0.00178758
0.00193231
0.00208501
0.00224581
0.00241446
0.00259041
0.00277338
0.0029634
0.00316034
0.00336398
0.00357397
0.00378965
0.00401046
0.00423635
0.00446726
0.00470245
0.00494077
0.00518111
0.00542233
0.00566346
0.00590389
0.00614308
0.00638003
0.00661332
0.00684174
0.00706431
0.00728005
0.00748773
0.00768597
0.00787338
0.00804863
0.0082107
0.00835898
0.00849316
0.00861278
0.00871704
0.00880496
0.00887576
0.00892911
0.00896513
0.00898417
0.00898659
0.00897261
0.00894231
0.00889581
0.00883359
0.00875655
0.00866591
0.00856298
0.00844897
0.00832498
0.00819215
0.00805177
0.00790526
0.00775402
0.00759927
0.00744206
0.0072832
0.00712324
0.00696274
0.00680329
0.00664657
0.00648189
0.00629977
0.00235741
0.00207383
0.00184431
0.00165119
0.00147344
0.00131135
0.00116554
0.00103497
0.000918614
0.000815764
0.000725893
0.000648302
0.000582537
0.000527888
0.000483863
0.000450248
0.000426763
0.000412828
0.000407687
0.000410884
0.000422377
0.000442171
0.000470008
0.000505513
0.000548572
0.000599437
0.000658402
0.000725446
0.000800291
0.000882656
0.000972525
0.00107013
0.00117557
0.00128866
0.00140914
0.00153689
0.00167216
0.00181543
0.00196692
0.00212651
0.00229392
0.00246878
0.00265109
0.00284097
0.0030381
0.00324203
0.00345237
0.00366867
0.00389068
0.00411847
0.00435177
0.00458958
0.00483066
0.005074
0.00531868
0.00556385
0.0058088
0.00605275
0.00629453
0.00653281
0.00676653
0.00699483
0.00721665
0.00743054
0.00763482
0.00782794
0.00800862
0.00817603
0.00832963
0.00846898
0.00859339
0.00870186
0.00879338
0.00886721
0.00892307
0.00896105
0.00898135
0.00898415
0.00896949
0.00893743
0.00888827
0.00882271
0.00874176
0.00864659
0.00853832
0.00841799
0.00828668
0.00814562
0.00799628
0.0078403
0.00767923
0.00751433
0.00734662
0.00717691
0.00700579
0.00683391
0.00666306
0.00649514
0.00631878
0.00612374
0.00235568
0.00205881
0.0018185
0.00161636
0.00143044
0.00126087
0.00110833
0.000971609
0.000849783
0.000742102
0.000647966
0.000566509
0.00049702
0.000438991
0.000392106
0.000355988
0.000330049
0.000313551
0.000305942
0.000307057
0.000316823
0.000334876
0.000360721
0.000394156
0.000435374
0.000484668
0.000542052
0.000607232
0.000679968
0.000760279
0.000848367
0.000944387
0.00104816
0.00115934
0.0012778
0.00140371
0.00153748
0.00167951
0.00182978
0.00198811
0.00215437
0.0023285
0.00251062
0.0027007
0.00289821
0.00310257
0.00331358
0.00353108
0.00375497
0.0039852
0.00422127
0.00446203
0.00470629
0.00495324
0.00520216
0.00545215
0.00570227
0.00595152
0.00619873
0.00644275
0.00668266
0.0069176
0.00714632
0.0073671
0.00757808
0.00777768
0.00796471
0.00813842
0.00829826
0.00844357
0.00857343
0.00868672
0.00878245
0.00885997
0.00891903
0.00895956
0.00898154
0.00898495
0.00896976
0.00893609
0.00888444
0.00881565
0.00873081
0.00863099
0.00851713
0.00839014
0.0082511
0.00810142
0.00794277
0.00777693
0.00760552
0.00742987
0.007251
0.00706977
0.00688688
0.0067031
0.00652044
0.00634102
0.00615266
0.00594435
0.0023335
0.00202389
0.00177312
0.00156231
0.00136843
0.00119145
0.0010322
0.000889522
0.000762428
0.00065011
0.000551551
0.000466012
0.000392793
0.000331544
0.000281842
0.000242985
0.000214221
0.000195001
0.000185076
0.000184252
0.000192086
0.000207984
0.000231616
0.000263078
0.000302605
0.000350204
0.000405618
0.000468593
0.000539168
0.000617582
0.000703977
0.000798251
0.000900059
0.00100915
0.00112568
0.00124999
0.00138244
0.00152319
0.00167211
0.00182918
0.00199455
0.00216832
0.00235056
0.00254098
0.00273891
0.00294393
0.00315607
0.00337538
0.00360169
0.00383474
0.00407385
0.00431788
0.00456587
0.00481717
0.00507108
0.00532654
0.00558239
0.00583753
0.0060909
0.00634153
0.0065886
0.00683107
0.00706745
0.0072958
0.00751421
0.00772117
0.00791558
0.00809666
0.00826367
0.00841573
0.00855172
0.00867051
0.00877119
0.00885319
0.00891618
0.00895988
0.008984
0.00898834
0.00897287
0.00893787
0.00888399
0.00881217
0.00872348
0.00861888
0.00849918
0.00836521
0.00821814
0.00805955
0.00789128
0.00771518
0.00753295
0.00734594
0.00715522
0.00696179
0.00676649
0.00657027
0.00637537
0.00618404
0.00598325
0.00576115
0.00229029
0.0019684
0.00170752
0.00148818
0.0012864
0.00110219
0.000936401
0.000788046
0.000655777
0.000538625
0.000435611
0.000346021
0.000269285
0.000204869
0.000152071
0.000110125
7.84356e-05
5.66871e-05
4.45954e-05
4.16344e-05
4.7126e-05
6.06411e-05
8.21501e-05
0.000111782
0.000149483
0.000194981
0.000248046
0.00030871
0.000377235
0.000453801
0.000538303
0.000630476
0.00073007
0.000837094
0.000951876
0.00107471
0.00120573
0.00134498
0.00149246
0.00164842
0.00181317
0.00198682
0.00216922
0.00235995
0.0025584
0.00276439
0.00297818
0.00319979
0.00342888
0.00366497
0.00390735
0.00415509
0.00440743
0.00466381
0.00492337
0.00518485
0.00544698
0.00570869
0.00596908
0.00622731
0.00648248
0.00673335
0.00697813
0.00721481
0.00744153
0.00765688
0.00785979
0.0080493
0.00822443
0.00838407
0.00852699
0.00865212
0.00875863
0.00884597
0.00891367
0.00896117
0.00898795
0.00899366
0.00897833
0.00894241
0.00888666
0.00881205
0.00871955
0.00861004
0.00848427
0.00834309
0.00818778
0.00802006
0.0078419
0.00765517
0.0074616
0.0072626
0.00705936
0.00685302
0.00664465
0.00643542
0.00622776
0.00602402
0.00581023
0.00557369
0.00222546
0.0018916
0.00162081
0.00139297
0.00118349
0.000992372
0.000820329
0.000666263
0.000528774
0.000406685
0.000299331
0.00020591
0.000125715
5.79196e-05
1.74222e-06
-4.33729e-05
-7.78129e-05
-0.000101949
-0.000116381
-0.00012186
-0.000118922
-0.000107696
-8.81722e-05
-6.05115e-05
-2.50531e-05
1.79456e-05
6.85274e-05
0.000126949
0.000193431
0.000267914
0.000350126
0.000439889
0.000537207
0.000642274
0.000755371
0.000876582
0.0010059
0.00114344
0.0012895
0.00144452
0.00160883
0.00178234
0.00196477
0.00215574
0.00235488
0.00256224
0.00277808
0.00300228
0.00323429
0.00347357
0.00371953
0.00397148
0.00422882
0.00449088
0.00475662
0.00502463
0.00529365
0.00556274
0.00583112
0.00609794
0.00636212
0.00662216
0.00687614
0.00712204
0.00735812
0.00758304
0.0077956
0.00799463
0.00817886
0.00834699
0.00849779
0.00863026
0.00874363
0.00883727
0.00891049
0.00896249
0.00899253
0.00900022
0.00898565
0.00894935
0.00889217
0.00881504
0.00871881
0.0086043
0.0084723
0.00832376
0.00816007
0.00798308
0.00779477
0.00759705
0.00739162
0.00718
0.00696353
0.00674357
0.00652147
0.0062986
0.00607757
0.00586077
0.00563327
0.00538152
0.00213815
0.00179264
0.00151219
0.00127604
0.00105914
0.000861311
0.000683096
0.000523214
0.000380468
0.000253726
0.000142172
4.49327e-05
-3.89379e-05
-0.000110333
-0.000169872
-0.000217964
-0.000255042
-0.000281755
-0.000298888
-0.000307076
-0.000306586
-0.000297515
-0.00028013
-0.000254876
-0.000222082
-0.000181735
-0.000133586
-7.74303e-05
-1.32677e-05
5.8692e-05
0.000138254
0.000225487
0.000320581
0.000423691
0.000534904
0.000654157
0.000781489
0.000917253
0.00106197
0.00121613
0.0013799
0.00155304
0.00173532
0.00192655
0.00212662
0.00233564
0.00255375
0.00278059
0.00301555
0.00325817
0.00350808
0.00376478
0.00402764
0.00429585
0.00456819
0.00484324
0.00511986
0.00539724
0.0056746
0.00595094
0.00622496
0.00649496
0.006759
0.00701516
0.00726181
0.00749755
0.00772099
0.00793064
0.008125
0.00830268
0.00846249
0.00860348
0.00872486
0.00882584
0.00890547
0.00896275
0.00899681
0.00900726
0.00899421
0.00895824
0.00890018
0.00882085
0.00872104
0.00860154
0.00846324
0.00830726
0.00813511
0.00794869
0.00774998
0.00754088
0.00732309
0.00709823
0.00686784
0.00663357
0.00639705
0.00615984
0.00592468
0.00569405
0.00545201
0.00518414
0.00202755
0.00167072
0.001381
0.00113688
0.00091263
0.000708052