/*--------------------------------*- C++ -*----------------------------------*\
| =========                 |                                                 |
| \\      /  F ield         | OpenFOAM: The Open Source CFD Toolbox           |
|  \\    /   O peration     | Version:  2512                                  |
|   \\  /    A nd           | Website:  www.openfoam.com                      |
|    \\/     M anipulation  |                                                 |
\*---------------------------------------------------------------------------*/
FoamFile
{
    version     2.0;
    format      ascii;
    arch        "LSB;label=32;scalar=64";
    class       surfaceScalarField;
    location    "0.3";
    object      phi;
}
// * * * * * * * * * * * * * * * * * * * * * * * * * * * * * * * * * * * * * //

dimensions      [0 3 -1 0 0 0 0];

oriented        oriented;

internalField   nonuniform List<scalar> 
19800
(
7.13569e-11
-7.13374e-11
6.52677e-11
6.08545e-12
-8.63007e-11
1.51571e-10
-2.76293e-10
1.90006e-10
-4.72405e-10
1.96108e-10
-6.87211e-10
2.14811e-10
-9.3954e-10
2.52351e-10
-1.2421e-09
3.02538e-10
-1.60333e-09
3.61239e-10
-2.02672e-09
4.23381e-10
-2.51195e-09
4.85249e-10
-3.05704e-09
5.45076e-10
-3.65743e-09
6.00389e-10
-4.30905e-09
6.51627e-10
-5.00687e-09
6.97825e-10
-5.74565e-09
7.38753e-10
-6.5197e-09
7.74066e-10
-7.32472e-09
8.05015e-10
-8.15536e-09
8.30623e-10
-9.00712e-09
8.5176e-10
-9.87564e-09
8.68516e-10
-1.07565e-08
8.80828e-10
-1.16459e-08
8.89431e-10
-1.25407e-08
8.94814e-10
-1.34375e-08
8.96779e-10
-1.43329e-08
8.95342e-10
-1.52236e-08
8.90763e-10
-1.61068e-08
8.83202e-10
-1.69795e-08
8.72646e-10
-1.78387e-08
8.5923e-10
-1.8682e-08
8.43266e-10
-1.95069e-08
8.2492e-10
-2.0311e-08
8.04084e-10
-2.10917e-08
7.80733e-10
-2.18467e-08
7.55057e-10
-2.25738e-08
7.271e-10
-2.32704e-08
6.96601e-10
-2.39337e-08
6.63292e-10
-2.4561e-08
6.2724e-10
-2.51497e-08
5.88699e-10
-2.56975e-08
5.47784e-10
-2.62019e-08
5.04465e-10
-2.66607e-08
4.58719e-10
-2.70713e-08
4.10649e-10
-2.74316e-08
3.60304e-10
-2.77391e-08
3.07489e-10
-2.79912e-08
2.52142e-10
-2.81859e-08
1.94645e-10
-2.83213e-08
1.35477e-10
-2.83962e-08
7.48471e-11
-2.84089e-08
1.27671e-11
-2.83582e-08
-5.07763e-11
-2.82425e-08
-1.15636e-10
-2.80613e-08
-1.81278e-10
-2.78143e-08
-2.46931e-10
-2.75022e-08
-3.12099e-10
-2.71255e-08
-3.76702e-10
-2.66848e-08
-4.40705e-10
-2.61809e-08
-5.03921e-10
-2.56148e-08
-5.66122e-10
-2.49877e-08
-6.27022e-10
-2.43016e-08
-6.86136e-10
-2.35588e-08
-7.42801e-10
-2.27624e-08
-7.96361e-10
-2.19162e-08
-8.46281e-10
-2.1024e-08
-8.92198e-10
-2.009e-08
-9.33964e-10
-1.91184e-08
-9.71547e-10
-1.81137e-08
-1.00474e-09
-1.70807e-08
-1.03302e-09
-1.6025e-08
-1.05572e-09
-1.49526e-08
-1.0724e-09
-1.38697e-08
-1.08285e-09
-1.27828e-08
-1.08695e-09
-1.16981e-08
-1.08462e-09
-1.06223e-08
-1.0758e-09
-9.56179e-09
-1.06055e-09
-8.52279e-09
-1.039e-09
-7.51151e-09
-1.01128e-09
-6.53404e-09
-9.77466e-10
-5.59647e-09
-9.37565e-10
-4.70486e-09
-8.91607e-10
-3.86523e-09
-8.39626e-10
-3.08351e-09
-7.81722e-10
-2.36534e-09
-7.18179e-10
-1.71582e-09
-6.49522e-10
-1.1394e-09
-5.76418e-10
-6.39875e-10
-4.99522e-10
-2.20366e-10
-4.19511e-10
1.16914e-10
-3.37281e-10
3.70912e-10
-2.54001e-10
5.41958e-10
-1.71053e-10
6.32037e-10
-9.00869e-11
6.45246e-10
-1.32131e-11
5.88756e-10
5.6491e-11
4.74462e-10
1.14295e-10
3.21372e-10
1.53094e-10
1.59655e-10
1.61719e-10
3.59014e-11
1.23755e-10
3.59036e-11
2.74578e-10
-3.4592e-10
4.68083e-10
-1.87414e-10
3.71611e-10
2.48018e-10
6.44147e-11
4.9721e-10
-4.05753e-10
6.66244e-10
-1.03277e-09
8.41827e-10
-1.82306e-09
1.04264e-09
-2.78563e-09
1.26512e-09
-3.92513e-09
1.50073e-09
-5.24032e-09
1.73858e-09
-6.72654e-09
1.97147e-09
-8.37467e-09
2.19319e-09
-1.01738e-08
2.3995e-09
-1.21113e-08
2.58909e-09
-1.41731e-08
2.75964e-09
-1.63463e-08
2.912e-09
-1.86169e-08
3.04471e-09
-2.0971e-08
3.15911e-09
-2.33958e-08
3.25542e-09
-2.58789e-08
3.33483e-09
-2.84079e-08
3.3975e-09
-3.09715e-08
3.44446e-09
-3.35591e-08
3.47705e-09
-3.61603e-08
3.49601e-09
-3.87652e-08
3.50168e-09
-4.13645e-08
3.49466e-09
-4.39494e-08
3.4756e-09
-4.6511e-08
3.4448e-09
-4.90409e-08
3.40254e-09
-5.15311e-08
3.34948e-09
-5.39741e-08
3.28627e-09
-5.63623e-08
3.21305e-09
-5.8688e-08
3.12981e-09
-6.09441e-08
3.03678e-09
-6.31233e-08
2.9343e-09
-6.52186e-08
2.82236e-09
-6.72226e-08
2.7006e-09
-6.91281e-08
2.56881e-09
-7.0928e-08
2.42716e-09
-7.26153e-08
2.276e-09
-7.4183e-08
2.11549e-09
-7.56243e-08
1.94575e-09
-7.69325e-08
1.76701e-09
-7.81013e-08
1.57944e-09
-7.91241e-08
1.3831e-09
-7.99947e-08
1.17807e-09
-8.07072e-08
9.64679e-10
-8.12563e-08
7.43732e-10
-8.16371e-08
5.16236e-10
-8.18452e-08
2.82937e-10
-8.18767e-08
4.42776e-11
-8.17282e-08
-1.99199e-10
-8.13974e-08
-4.46488e-10
-8.08825e-08
-6.96154e-10
-8.01828e-08
-9.46634e-10
-7.92984e-08
-1.19654e-09
-7.82303e-08
-1.44479e-09
-7.69805e-08
-1.69049e-09
-7.55517e-08
-1.93271e-09
-7.39475e-08
-2.17036e-09
-7.21724e-08
-2.40204e-09
-7.02325e-08
-2.62609e-09
-6.81347e-08
-2.8406e-09
-6.58874e-08
-3.04367e-09
-6.35001e-08
-3.23359e-09
-6.09833e-08
-3.40896e-09
-5.83486e-08
-3.56871e-09
-5.56082e-08
-3.71187e-09
-5.27757e-08
-3.8373e-09
-4.98651e-08
-3.94355e-09
-4.68918e-08
-4.02908e-09
-4.38716e-08
-4.09256e-09
-4.08214e-08
-4.13308e-09
-3.77584e-08
-4.15e-09
-3.47001e-08
-4.14288e-09
-3.16644e-08
-4.11151e-09
-2.8669e-08
-4.05589e-09
-2.57318e-08
-3.97625e-09
-2.28702e-08
-3.87285e-09
-2.01017e-08
-3.74595e-09
-1.74434e-08
-3.59592e-09
-1.49118e-08
-3.42319e-09
-1.2523e-08
-3.22841e-09
-1.02923e-08
-3.01244e-09
-8.23386e-09
-2.77658e-09
-6.36081e-09
-2.52257e-09
-4.68464e-09
-2.2526e-09
-3.215e-09
-1.96917e-09
-1.95934e-09
-1.67517e-09
-9.22593e-10
-1.37403e-09
-1.06674e-10
-1.06992e-09
4.90206e-10
-7.67934e-10
8.74486e-10
-4.74373e-10
1.05856e-09
-1.97298e-10
1.06262e-09
5.24194e-11
9.17336e-10
2.59578e-10
6.67363e-10
4.03076e-10
3.75249e-10
4.53848e-10
1.22318e-10
3.76704e-10
1.58221e-10
3.93013e-10
-7.3893e-10
7.4515e-10
-5.39557e-10
7.39712e-10
2.53446e-10
3.74681e-10
8.6225e-10
-3.22546e-10
1.36348e-09
-1.33474e-09
1.85398e-09
-2.65445e-09
2.36237e-09
-4.27677e-09
2.88742e-09
-6.19356e-09
3.41752e-09
-8.39513e-09
3.94016e-09
-1.08673e-08
4.44366e-09
-1.35936e-08
4.91944e-09
-1.65556e-08
5.3615e-09
-1.97322e-08
5.76575e-09
-2.31038e-08
6.13124e-09
-2.66475e-08
6.45568e-09
-3.03432e-08
6.74042e-09
-3.41699e-08
6.98574e-09
-3.81072e-08
7.19272e-09
-4.21353e-08
7.36295e-09
-4.62357e-08
7.49789e-09
-5.03905e-08
7.59927e-09
-5.45824e-08
7.66891e-09
-5.87947e-08
7.70829e-09
-6.30118e-08
7.71878e-09
-6.72187e-08
7.70158e-09
-7.14009e-08
7.65778e-09
-7.55443e-08
7.58823e-09
-7.96356e-08
7.49385e-09
-8.36618e-08
7.37567e-09
-8.761e-08
7.23452e-09
-9.14678e-08
7.07086e-09
-9.52231e-08
6.88504e-09
-9.88638e-08
6.67752e-09
-1.02378e-07
6.44869e-09
-1.05754e-07
6.19863e-09
-1.08981e-07
5.92719e-09
-1.12047e-07
5.6344e-09
-1.1494e-07
5.32054e-09
-1.1765e-07
4.98598e-09
-1.20166e-07
4.63108e-09
-1.22476e-07
4.25618e-09
-1.24571e-07
3.86176e-09
-1.2644e-07
3.44833e-09
-1.28073e-07
3.01628e-09
-1.29461e-07
2.56611e-09
-1.30595e-07
2.09882e-09
-1.31467e-07
1.61585e-09
-1.3207e-07
1.1188e-09
-1.32396e-07
6.09153e-10
-1.3244e-07
8.83814e-11
-1.32197e-07
-4.41896e-10
-1.31664e-07
-9.79602e-10
-1.30838e-07
-1.52213e-09
-1.29718e-07
-2.06669e-09
-1.28304e-07
-2.61064e-09
-1.26597e-07
-3.1515e-09
-1.24601e-07
-3.68677e-09
-1.2232e-07
-4.21389e-09
-1.1976e-07
-4.7301e-09
-1.1693e-07
-5.23238e-09
-1.13838e-07
-5.71734e-09
-1.10498e-07
-6.18137e-09
-1.06921e-07
-6.62088e-09
-1.03122e-07
-7.03247e-09
-9.91175e-08
-7.41306e-09
-9.49263e-08
-7.75989e-09
-9.05679e-08
-8.07032e-09
-8.60635e-08
-8.34169e-09
-8.14358e-08
-8.5712e-09
-7.67087e-08
-8.75617e-09
-7.19071e-08
-8.89419e-09
-6.70568e-08
-8.98334e-09
-6.21847e-08
-9.02217e-09
-5.73179e-08
-9.00967e-09
-5.24842e-08
-8.94521e-09
-4.77115e-08
-8.82855e-09
-4.30279e-08
-8.65985e-09
-3.84612e-08
-8.43959e-09
-3.40386e-08
-8.16851e-09
-2.97869e-08
-7.84763e-09
-2.57318e-08
-7.47829e-09
-2.18979e-08
-7.0623e-09
-1.83084e-08
-6.602e-09
-1.49845e-08
-6.10041e-09
-1.19458e-08
-5.56129e-09
-9.20923e-09
-4.98919e-09
-6.78892e-09
-4.38949e-09
-4.69569e-09
-3.76841e-09
-2.93635e-09
-3.13336e-09
-1.5131e-09
-2.49318e-09
-4.22464e-10
-1.85857e-09
3.4595e-10
-1.24279e-09
8.11173e-10
-6.62517e-10
1.00297e-09
-1.39379e-10
9.64407e-10
2.9814e-10
7.54905e-10
6.12576e-10
4.53454e-10
7.55301e-10
1.60253e-10
6.69916e-10
3.18475e-10
3.17523e-10
-1.05645e-09
5.95458e-10
-8.17479e-10
5.02988e-10
3.45927e-10
-3.19851e-11
1.3972e-09
-1.01589e-09
2.3474e-09
-2.44146e-09
3.27958e-09
-4.29673e-09
4.21762e-09
-6.56829e-09
5.15899e-09
-9.24016e-09
6.08937e-09
-1.2294e-08
6.99397e-09
-1.57084e-08
7.85811e-09
-1.94596e-08
8.67063e-09
-2.35219e-08
9.4238e-09
-2.78682e-08
1.0112e-08
-3.24707e-08
1.07338e-08
-3.73016e-08
1.12866e-08
-4.23333e-08
1.17721e-08
-4.75378e-08
1.21902e-08
-5.28892e-08
1.25441e-08
-5.83615e-08
1.28353e-08
-6.39297e-08
1.30661e-08
-6.957e-08
1.32395e-08
-7.52591e-08
1.33581e-08
-8.0975e-08
1.34241e-08
-8.66962e-08
1.344e-08
-9.24026e-08
1.34079e-08
-9.80744e-08
1.33296e-08
-1.03693e-07
1.32066e-08
-1.09239e-07
1.30405e-08
-1.14697e-07
1.28329e-08
-1.20047e-07
1.25848e-08
-1.25273e-07
1.22971e-08
-1.30359e-07
1.19706e-08
-1.35287e-07
1.16061e-08
-1.40043e-07
1.12042e-08
-1.44609e-07
1.0765e-08
-1.48971e-07
1.02889e-08
-1.53113e-07
9.77618e-09
-1.57019e-07
9.22726e-09
-1.60676e-07
8.64266e-09
-1.64068e-07
8.02295e-09
-1.67181e-07
7.36885e-09
-1.7e-07
6.68128e-09
-1.72513e-07
5.9612e-09
-1.74706e-07
5.20958e-09
-1.76568e-07
4.42764e-09
-1.78086e-07
3.61713e-09
-1.79251e-07
2.78026e-09
-1.80051e-07
1.91952e-09
-1.8048e-07
1.0375e-09
-1.80528e-07
1.36915e-10
-1.80191e-07
-7.79148e-10
-1.79463e-07
-1.70706e-09
-1.78343e-07
-2.64278e-09
-1.76827e-07
-3.58208e-09
-1.74917e-07
-4.52058e-09
-1.72615e-07
-5.45378e-09
-1.69925e-07
-6.37704e-09
-1.66853e-07
-7.2856e-09
-1.63409e-07
-8.17451e-09
-1.59603e-07
-9.03853e-09
-1.55448e-07
-9.87212e-09
-1.5096e-07
-1.06695e-08
-1.46156e-07
-1.14248e-08
-1.41056e-07
-1.21325e-08
-1.35682e-07
-1.27871e-08
-1.30058e-07
-1.33839e-08
-1.2421e-07
-1.39179e-08
-1.18167e-07
-1.43846e-08
-1.11959e-07
-1.47794e-08
-1.05617e-07
-1.50981e-08
-9.91745e-08
-1.53368e-08
-9.26652e-08
-1.54926e-08
-8.61245e-08
-1.55629e-08
-7.95884e-08
-1.55458e-08
-7.30934e-08
-1.54401e-08
-6.66766e-08
-1.52454e-08
-6.03747e-08
-1.49618e-08
-5.42244e-08
-1.45899e-08
-4.82617e-08
-1.41312e-08
-4.25216e-08
-1.35877e-08
-3.70379e-08
-1.2962e-08
-3.18426e-08
-1.22576e-08
-2.69657e-08
-1.14789e-08
-2.24349e-08
-1.06312e-08
-1.82749e-08
-9.72127e-09
-1.45074e-08
-8.75676e-09
-1.115e-08
-7.74684e-09
-8.21628e-09
-6.70214e-09
-5.71443e-09
-5.63522e-09
-3.64661e-09
-4.561e-09
-2.0078e-09
-3.49738e-09
-7.84456e-10
-2.46614e-09
4.72303e-11
-1.49421e-09
5.23223e-10
-6.15371e-10
6.93921e-10
1.27444e-10
6.26848e-10
6.7965e-10
4.09605e-10
9.72548e-10
1.53178e-10
9.26345e-10
4.71656e-10
1.67762e-10
-1.22422e-09
2.29193e-10
-8.78938e-10
-9.79715e-11
6.731e-10
-9.21718e-10
2.22095e-09
-2.2763e-09
3.70198e-09
-4.16693e-09
5.17018e-09
-6.58451e-09
6.63525e-09
-9.51387e-09
8.08835e-09
-1.29338e-08
9.50932e-09
-1.68203e-08
1.08804e-08
-2.11454e-08
1.21832e-08
-2.58797e-08
1.3405e-08
-3.09918e-08
1.45359e-08
-3.64492e-08
1.55694e-08
-4.22174e-08
1.65019e-08
-4.82636e-08
1.73328e-08
-5.45535e-08
1.8062e-08
-6.10547e-08
1.86915e-08
-6.77344e-08
1.92239e-08
-7.45613e-08
1.96621e-08
-8.15051e-08
2.001e-08
-8.85367e-08
2.0271e-08
-9.56273e-08
2.04487e-08
-1.0275e-07
2.05467e-08
-1.09878e-07
2.05683e-08
-1.16987e-07
2.05165e-08
-1.24051e-07
2.0394e-08
-1.31048e-07
2.02032e-08
-1.37954e-07
1.99466e-08
-1.44747e-07
1.96262e-08
-1.51406e-07
1.92435e-08
-1.57909e-07
1.88e-08
-1.64235e-07
1.82969e-08
-1.70364e-07
1.77353e-08
-1.76276e-07
1.71161e-08
-1.81951e-07
1.64399e-08
-1.87369e-07
1.57072e-08
-1.92512e-07
1.49189e-08
-1.97361e-07
1.40757e-08
-2.01896e-07
1.31782e-08
-2.06101e-07
1.22276e-08
-2.09957e-07
1.12249e-08
-2.13447e-07
1.01716e-08
-2.16555e-07
9.06928e-09
-2.19265e-07
7.91963e-09
-2.21562e-07
6.72481e-09
-2.23433e-07
5.48762e-09
-2.24864e-07
4.21128e-09
-2.25844e-07
2.89931e-09
-2.26362e-07
1.5556e-09
-2.26409e-07
1.84509e-10
-2.25979e-07
-1.20912e-09
-2.25067e-07
-2.61985e-09
-2.23668e-07
-4.0418e-09
-2.21781e-07
-5.46879e-09
-2.19407e-07
-6.89434e-09
-2.16549e-07
-8.31155e-09
-2.13213e-07
-9.71322e-09
-2.09407e-07
-1.10919e-08
-2.05141e-07
-1.24401e-08
-2.0043e-07
-1.37497e-08
-1.9529e-07
-1.50126e-08
-1.89739e-07
-1.62203e-08
-1.83799e-07
-1.73644e-08
-1.77495e-07
-1.84364e-08
-1.70854e-07
-1.94286e-08
-1.63904e-07
-2.03332e-08
-1.56679e-07
-2.1143e-08
-1.49213e-07
-2.1851e-08
-1.41542e-07
-2.24503e-08
-1.33705e-07
-2.29351e-08
-1.25742e-07
-2.32999e-08
-1.17695e-07
-2.354e-08
-1.09606e-07
-2.36519e-08
-1.01519e-07
-2.36326e-08
-9.34785e-08
-2.34803e-08
-8.55299e-08
-2.31941e-08
-7.77175e-08
-2.27742e-08
-7.00858e-08
-2.22216e-08
-6.26783e-08
-2.15387e-08
-5.55373e-08
-2.07286e-08
-4.87037e-08
-1.97956e-08
-4.2216e-08
-1.87453e-08
-3.61102e-08
-1.75846e-08
-3.04196e-08
-1.63219e-08
-2.51735e-08
-1.49673e-08
-2.03976e-08
-1.35327e-08
-1.61128e-08
-1.20316e-08
-1.23347e-08
-1.04802e-08
-9.07274e-09
-8.89719e-09
-6.32914e-09
-7.3046e-09
-4.09792e-09
-5.7286e-09
-2.36351e-09
-4.20056e-09
-1.09921e-09
-2.75851e-09
-2.65546e-10
-1.44903e-09
1.9169e-10
-3.29791e-10
3.4365e-10
5.2769e-10
2.81154e-10
1.03504e-09
1.18341e-10
1.08916e-09
5.9e-10
1.155e-11
-1.23577e-09
-2.02796e-10
-6.6458e-10
-8.54316e-10
1.32459e-09
-2.05395e-09
3.42062e-09
-3.8513e-09
5.49931e-09
-6.26028e-09
7.57912e-09
-9.2761e-09
9.65107e-09
-1.28814e-08
1.16936e-08
-1.7054e-08
1.3682e-08
-2.17644e-08
1.55908e-08
-2.6982e-08
1.74008e-08
-3.26719e-08
1.90949e-08
-3.87971e-08
2.0661e-08
-4.53205e-08
2.20928e-08
-5.22029e-08
2.33844e-08
-5.94064e-08
2.45363e-08
-6.68918e-08
2.55474e-08
-7.46213e-08
2.6421e-08
-8.25574e-08
2.716e-08
-9.0664e-08
2.77687e-08
-9.89055e-08
2.82515e-08
-1.07248e-07
2.86133e-08
-1.15658e-07
2.88587e-08
-1.24104e-07
2.89925e-08
-1.32554e-07
2.90191e-08
-1.4098e-07
2.89423e-08
-1.49352e-07
2.87661e-08
-1.57643e-07
2.84937e-08
-1.65825e-07
2.81284e-08
-1.73871e-07
2.76728e-08
-1.81757e-07
2.7129e-08
-1.89456e-07
2.64993e-08
-1.96944e-07
2.57854e-08
-2.04198e-07
2.49887e-08
-2.11192e-07
2.41104e-08
-2.17904e-07
2.31516e-08
-2.2431e-07
2.21135e-08
-2.30388e-07
2.09972e-08
-2.36117e-07
1.98038e-08
-2.41473e-07
1.85343e-08
-2.46435e-07
1.71904e-08
-2.50985e-07
1.57739e-08
-2.551e-07
1.42868e-08
-2.58762e-07
1.27314e-08
-2.61952e-07
1.11103e-08
-2.64654e-07
9.42674e-09
-2.66852e-07
7.6848e-09
-2.68529e-07
5.88889e-09
-2.69674e-07
4.0439e-09
-2.70273e-07
2.15532e-09
-2.70318e-07
2.29313e-10
-2.698e-07
-1.72725e-09
-2.68713e-07
-3.70687e-09
-2.67053e-07
-5.70146e-09
-2.6482e-07
-7.70249e-09
-2.62013e-07
-9.70088e-09
-2.58638e-07
-1.1687e-08
-2.547e-07
-1.36507e-08
-2.50211e-07
-1.55817e-08
-2.45182e-07
-1.74691e-08
-2.39629e-07
-1.93021e-08
-2.33573e-07
-2.10691e-08
-2.27034e-07
-2.27586e-08
-2.2004e-07
-2.4359e-08
-2.12617e-07
-2.58591e-08
-2.04798e-07
-2.72478e-08
-1.96617e-07
-2.85145e-08
-1.88111e-07
-2.96489e-08
-1.7932e-07
-3.06413e-08
-1.70288e-07
-3.14827e-08
-1.61058e-07
-3.21648e-08
-1.51678e-07
-3.26802e-08
-1.42195e-07
-3.30228e-08
-1.3266e-07
-3.31874e-08
-1.23122e-07
-3.317e-08
-1.13635e-07
-3.2968e-08
-1.04248e-07
-3.25804e-08
-9.50154e-08
-3.20072e-08
-8.59869e-08
-3.12501e-08
-7.72134e-08
-3.03123e-08
-6.87436e-08
-2.91984e-08
-6.06245e-08
-2.79148e-08
-5.29005e-08
-2.64693e-08
-4.5613e-08
-2.48721e-08
-3.88e-08
-2.31349e-08
-3.24954e-08
-2.1272e-08
-2.67282e-08
-1.92998e-08
-2.15223e-08
-1.72375e-08
-1.68954e-08
-1.51072e-08
-1.28581e-08
-1.29345e-08
-9.41307e-09
-1.07496e-08
-6.55417e-09
-8.5875e-09
-4.26493e-09
-6.4898e-09
-2.51746e-09
-4.50598e-09
-1.27094e-09
-2.69555e-09
-4.70139e-10
-1.1306e-09
-4.35603e-11
1.01113e-10
9.85925e-11
8.92886e-10
6.73755e-11
1.12037e-09
6.57377e-10
-1.31701e-10
-1.10405e-09
-6.39359e-10
-1.56928e-10
-1.66024e-09
2.34548e-09
-3.29208e-09
5.05243e-09
-5.58551e-09
7.79279e-09
-8.55629e-09
1.05499e-08
-1.22015e-08
1.32963e-08
-1.6504e-08
1.59961e-08
-2.14379e-08
1.86158e-08
-2.69726e-08
2.11255e-08
-3.30717e-08
2.35e-08
-3.96971e-08
2.57203e-08
-4.68085e-08
2.77725e-08
-5.43635e-08
2.96478e-08
-6.23198e-08
3.13408e-08
-7.06336e-08
3.285e-08
-7.92625e-08
3.41763e-08
-8.8164e-08
3.53224e-08
-9.72961e-08
3.62922e-08
-1.06618e-07
3.70909e-08
-1.16091e-07
3.77241e-08
-1.25675e-07
3.81976e-08
-1.35334e-07
3.85175e-08
-1.45031e-07
3.86896e-08
-1.54731e-07
3.87193e-08
-1.64401e-07
3.86118e-08
-1.74007e-07
3.8372e-08
-1.83517e-07
3.80043e-08
-1.92901e-07
3.75125e-08
-2.02128e-07
3.69e-08
-2.11169e-07
3.61699e-08
-2.19995e-07
3.5325e-08
-2.28577e-07
3.43676e-08
-2.36888e-07
3.32995e-08
-2.449e-07
3.21226e-08
-2.52587e-07
3.08384e-08
-2.59922e-07
2.94486e-08
-2.66879e-07
2.79547e-08
-2.73434e-07
2.63583e-08
-2.79561e-07
2.46611e-08
-2.85236e-07
2.28655e-08
-2.90436e-07
2.09737e-08
-2.95138e-07
1.89887e-08
-2.9932e-07
1.69136e-08
-3.02962e-07
1.47521e-08
-3.06044e-07
1.25089e-08
-3.08548e-07
1.01891e-08
-3.10458e-07
7.79861e-09
-3.11758e-07
5.34402e-09
-3.12435e-07
2.83268e-09
-3.12479e-07
2.72876e-10
-3.1188e-07
-2.32635e-09
-3.10631e-07
-4.95518e-09
-3.0873e-07
-7.60303e-09
-3.06174e-07
-1.02586e-08
-3.02965e-07
-1.29099e-08
-2.99108e-07
-1.55441e-08
-2.9461e-07
-1.81479e-08
-2.89484e-07
-2.07077e-08
-2.83744e-07
-2.32092e-08
-2.77408e-07
-2.56381e-08
-2.70498e-07
-2.79791e-08
-2.63039e-07
-3.02174e-08
-2.55061e-07
-3.23379e-08
-2.46594e-07
-3.43258e-08
-2.37675e-07
-3.61667e-08
-2.28343e-07
-3.78466e-08
-2.1864e-07
-3.93521e-08
-2.08611e-07
-4.06705e-08
-1.98303e-07
-4.179e-08
-1.87768e-07
-4.26998e-08
-1.77058e-07
-4.33906e-08
-1.66226e-07
-4.38541e-08
-1.5533e-07
-4.40837e-08
-1.44426e-07
-4.40743e-08
-1.33571e-07
-4.38224e-08
-1.22825e-07
-4.33265e-08
-1.12246e-07
-4.25869e-08
-1.0189e-07
-4.1606e-08
-9.1814e-08
-4.03879e-08
-8.20734e-08
-3.8939e-08
-7.27203e-08
-3.72678e-08
-6.38046e-08
-3.53851e-08
-5.53725e-08
-3.33042e-08
-4.74664e-08
-3.1041e-08
-4.0124e-08
-2.86144e-08
-3.33779e-08
-2.60459e-08
-2.72547e-08
-2.33607e-08
-2.17742e-08
-2.05877e-08
-1.69485e-08
-1.77602e-08
-1.27815e-08
-1.49166e-08
-9.26735e-09
-1.21016e-08
-6.38991e-09
-9.36723e-09
-4.12149e-09
-6.7744e-09
-2.42175e-09
-4.39529e-09
-1.23657e-09
-2.31579e-09
-4.96708e-10
-6.38747e-10
-1.16573e-10
5.12751e-10
7.52963e-12
9.96268e-10
6.64906e-10
-2.60579e-10
-8.43495e-10
-1.05754e-09
6.40037e-10
-2.46553e-09
3.75347e-09
-4.56055e-09
7.14745e-09
-7.38351e-09
1.06157e-08
-1.09485e-08
1.41149e-08
-1.52485e-08
1.75963e-08
-2.02651e-08
2.10126e-08
-2.59702e-08
2.43209e-08
-3.23291e-08
2.74844e-08
-3.93036e-08
3.04745e-08
-4.68512e-08
3.32678e-08
-5.49281e-08
3.58494e-08
-6.34878e-08
3.82075e-08
-7.24846e-08
4.03376e-08
-8.1871e-08
4.22364e-08
-9.16005e-08
4.39059e-08
-1.01627e-07
4.53486e-08
-1.11904e-07
4.65695e-08
-1.22388e-07
4.75748e-08
-1.33035e-07
4.83708e-08
-1.43802e-07
4.89649e-08
-1.54649e-07
4.93641e-08
-1.65534e-07
4.95755e-08
-1.76421e-07
4.96056e-08
-1.8727e-07
4.9461e-08
-1.98046e-07
4.91476e-08
-2.08712e-07
4.86706e-08
-2.19234e-07
4.80349e-08
-2.29579e-07
4.72448e-08
-2.39713e-07
4.63041e-08
-2.49604e-07
4.52163e-08
-2.59221e-07
4.39842e-08
-2.68532e-07
4.26103e-08
-2.77507e-07
4.10972e-08
-2.86115e-07
3.94469e-08
-2.94328e-07
3.76615e-08
-3.02117e-07
3.57433e-08
-3.09452e-07
3.36942e-08
-3.16308e-07
3.15169e-08
-3.22657e-07
2.92143e-08
-3.28473e-07
2.67895e-08
-3.33731e-07
2.42463e-08
-3.38406e-07
2.15889e-08
-3.42476e-07
1.88224e-08
-3.4592e-07
1.59526e-08
-3.48717e-07
1.29863e-08
-3.5085e-07
9.93097e-09
-3.523e-07
6.79497e-09
-3.53056e-07
3.58784e-09
-3.53103e-07
3.20166e-10
-3.52433e-07
-2.99657e-09
-3.51038e-07
-6.34998e-09
-3.48914e-07
-9.72667e-09
-3.46061e-07
-1.31123e-08
-3.42479e-07
-1.64915e-08
-3.38175e-07
-1.98482e-08
-3.33157e-07
-2.31656e-08
-3.27438e-07
-2.64263e-08
-3.21035e-07
-2.96124e-08
-3.13968e-07
-3.27056e-08
-3.0626e-07
-3.56868e-08
-2.9794e-07
-3.85373e-08
-2.8904e-07
-4.12382e-08
-2.79595e-07
-4.37709e-08
-2.69644e-07
-4.61173e-08
-2.59231e-07
-4.82597e-08
-2.48402e-07
-5.01812e-08
-2.37207e-07
-5.18659e-08
-2.25698e-07
-5.32989e-08
-2.13931e-07
-5.44669e-08
-2.01963e-07
-5.5358e-08
-1.89855e-07
-5.59619e-08
-1.77669e-07
-5.62703e-08
-1.65466e-07
-5.62768e-08
-1.53312e-07
-5.59771e-08
-1.41269e-07
-5.53693e-08
-1.29402e-07
-5.4454e-08
-1.17774e-07
-5.3234e-08
-1.06447e-07
-5.17149e-08
-9.54809e-08
-4.99048e-08
-8.49341e-08
-4.78146e-08
-7.48609e-08
-4.54583e-08
-6.53122e-08
-4.28529e-08
-5.63344e-08
-4.00187e-08
-4.79693e-08
-3.69795e-08
-4.02525e-08
-3.37626e-08
-3.32136e-08
-3.03997e-08
-2.68746e-08
-2.69267e-08
-2.12496e-08
-2.33851e-08
-1.6344e-08
-1.98222e-08
-1.21534e-08
-1.62922e-08
-8.66288e-09
-1.28578e-08
-5.84607e-09
-9.59121e-09
-3.66458e-09
-6.57678e-09
-2.06706e-09
-3.91332e-09
-9.88476e-10
-1.71733e-09
-3.49625e-10
-1.26096e-10
-5.66254e-11
7.03268e-10
6.08283e-10
-3.75218e-10
-4.68253e-10
-1.44983e-09
1.71464e-09
-3.24827e-09
5.5519e-09
-5.81995e-09
9.71911e-09
-9.19181e-09
1.39876e-08
-1.3369e-08
1.8292e-08
-1.8341e-08
2.25683e-08
-2.40841e-08
2.67557e-08
-3.0567e-08
3.08038e-08
-3.77518e-08
3.46693e-08
-4.55965e-08
3.83191e-08
-5.40554e-08
4.17268e-08
-6.30807e-08
4.48746e-08
-7.26238e-08
4.77506e-08
-8.2634e-08
5.03478e-08
-9.30615e-08
5.26639e-08
-1.03856e-07
5.47001e-08
-1.14967e-07
5.646e-08
-1.26347e-07
5.79491e-08
-1.37946e-07
5.91742e-08
-1.49719e-07
6.01433e-08
-1.61618e-07
6.08644e-08
-1.736e-07
6.13461e-08
-1.85621e-07
6.15965e-08
-1.97639e-07
6.16234e-08
-2.09613e-07
6.14347e-08
-2.21502e-07
6.10371e-08
-2.33269e-07
6.04372e-08
-2.44874e-07
5.96406e-08
-2.56282e-07
5.86526e-08
-2.67456e-07
5.74779e-08
-2.7836e-07
5.61205e-08
-2.8896e-07
5.45841e-08
-2.99222e-07
5.28719e-08
-3.09112e-07
5.09869e-08
-3.18597e-07
4.89319e-08
-3.27645e-07
4.67097e-08
-3.36224e-07
4.43228e-08
-3.44304e-07
4.17743e-08
-3.51855e-07
3.90674e-08
-3.58846e-07
3.62058e-08
-3.6525e-07
3.31936e-08
-3.7104e-07
3.00355e-08
-3.76188e-07
2.67369e-08
-3.8067e-07
2.33044e-08
-3.84462e-07
1.97453e-08
-3.87544e-07
1.60678e-08
-3.89894e-07
1.22813e-08
-3.91495e-07
8.39638e-09
-3.92332e-07
4.42474e-09
-3.92392e-07
3.79454e-10
-3.91663e-07
-3.72537e-09
-3.90138e-07
-7.87447e-09
-3.87814e-07
-1.20513e-08
-3.84688e-07
-1.62382e-08
-3.80763e-07
-2.04164e-08
-3.76045e-07
-2.45661e-08
-3.70544e-07
-2.86667e-08
-3.64273e-07
-3.26969e-08
-3.57251e-07
-3.66346e-08
-3.49499e-07
-4.04573e-08
-3.41044e-07
-4.41419e-08
-3.31916e-07
-4.76653e-08
-3.2215e-07
-5.10047e-08
-3.11783e-07
-5.41372e-08
-3.0086e-07
-5.70407e-08
-2.89426e-07
-5.96936e-08
-2.77532e-07
-6.20751e-08
-2.65232e-07
-6.41659e-08
-2.52583e-07
-6.59479e-08
-2.39645e-07
-6.74047e-08
-2.26481e-07
-6.85219e-08
-2.13156e-07
-6.9287e-08
-1.99737e-07
-6.96896e-08
-1.86292e-07
-6.97221e-08
-1.72889e-07
-6.93793e-08
-1.596e-07
-6.8659e-08
-1.46492e-07
-6.75617e-08
-1.33635e-07
-6.60912e-08
-1.21095e-07
-6.42543e-08
-1.08939e-07
-6.20611e-08
-9.72284e-08
-5.95253e-08
-8.60227e-08
-5.6664e-08
-7.53773e-08
-5.34984e-08
-6.53428e-08
-5.00533e-08
-5.59644e-08
-4.63579e-08
-4.72814e-08
-4.24456e-08
-3.93262e-08
-3.83549e-08
-3.21235e-08
-3.41294e-08
-2.56898e-08
-2.98188e-08
-2.00325e-08
-2.54795e-08
-1.51493e-08
-2.11755e-08
-1.10273e-08
-1.69797e-08
-7.64282e-09
-1.29757e-08
-4.96033e-09
-9.25927e-09
-2.93249e-09
-5.94116e-09
-1.4998e-09
-3.15002e-09
-5.90737e-10
-1.03515e-09
-1.22244e-10
2.34777e-10
4.86043e-10
-4.78241e-10
9.97475e-12
-1.81727e-09
3.05368e-09
-3.9997e-09
7.73434e-09
-7.04968e-09
1.27691e-08
-1.09773e-08
1.79152e-08
-1.57773e-08
2.30921e-08
-2.14296e-08
2.82205e-08
-2.79063e-08
3.32325e-08
-3.51706e-08
3.8068e-08
-4.31807e-08
4.26794e-08
-5.18902e-08
4.70287e-08
-6.12511e-08
5.10876e-08
-7.12112e-08
5.48348e-08
-8.17187e-08
5.82581e-08
-9.272e-08
6.13491e-08
-1.04162e-07
6.41059e-08
-1.15991e-07
6.6529e-08
-1.28154e-07
6.86231e-08
-1.40599e-07
7.03942e-08
-1.53275e-07
7.18502e-08
-1.66132e-07
7.29999e-08
-1.7912e-07
7.38529e-08
-1.92193e-07
7.44185e-08
-2.05303e-07
7.47064e-08
-2.18405e-07
7.47257e-08
-2.31455e-07
7.44851e-08
-2.44411e-07
7.39928e-08
-2.5723e-07
7.32561e-08
-2.69871e-07
7.2282e-08
-2.82295e-07
7.10766e-08
-2.94463e-07
6.96453e-08
-3.06335e-07
6.79931e-08
-3.17875e-07
6.61242e-08
-3.29046e-07
6.40426e-08
-3.39811e-07
6.1752e-08
-3.50135e-07
5.92559e-08
-3.59983e-07
5.65576e-08
-3.69321e-07
5.36605e-08
-3.78115e-07
5.05683e-08
-3.86333e-07
4.72852e-08
-3.93943e-07
4.38157e-08
-4.00914e-07
4.01647e-08
-4.07216e-07
3.63383e-08
-4.12823e-07
3.23432e-08
-4.17706e-07
2.81872e-08
-4.2184e-07
2.38795e-08
-4.25202e-07
1.94299e-08
-4.2777e-07
1.48498e-08
-4.29526e-07
1.01521e-08
-4.30452e-07
5.351e-09
-4.30535e-07
4.62111e-10
-4.29763e-07
-4.4976e-09
-4.28127e-07
-9.50978e-09
-4.25624e-07
-1.45545e-08
-4.22252e-07
-1.96105e-08
-4.18013e-07
-2.46553e-08
-4.12914e-07
-2.96653e-08
-4.06965e-07
-3.46157e-08
-4.00181e-07
-3.9481e-08
-3.92581e-07
-4.42347e-08
-3.84188e-07
-4.88498e-08
-3.75031e-07
-5.32989e-08
-3.65142e-07
-5.75543e-08
-3.54558e-07
-6.15886e-08
-3.43321e-07
-6.53748e-08
-3.31475e-07
-6.88861e-08
-3.19072e-07
-7.20968e-08
-3.06165e-07
-7.49822e-08
-2.92812e-07
-7.7519e-08
-2.79074e-07
-7.96859e-08
-2.65015e-07
-8.14631e-08
-2.50704e-07
-8.28333e-08
-2.36209e-07
-8.37817e-08
-2.21603e-07
-8.4296e-08
-2.06958e-07
-8.43668e-08
-1.92349e-07
-8.39881e-08
-1.77851e-07
-8.31573e-08
-1.63538e-07
-8.1875e-08
-1.49483e-07
-8.01459e-08
-1.3576e-07
-7.79779e-08
-1.22437e-07
-7.53836e-08
-1.09583e-07
-7.23791e-08
-9.72618e-08
-6.89855e-08
-8.55323e-08
-6.52278e-08
-7.44496e-08
-6.1136e-08
-6.40627e-08
-5.67448e-08
-5.44143e-08
-5.2094e-08
-4.55401e-08
-4.72291e-08
-3.74679e-08
-4.22017e-08
-3.02168e-08
-3.70699e-08
-2.3797e-08
-3.18993e-08
-1.82088e-08
-2.67636e-08
-1.34423e-08
-2.17462e-08
-9.47698e-09
-1.69411e-08
-6.28122e-09
-1.2455e-08
-3.81253e-09
-8.40984e-09
-2.0177e-09
-4.94486e-09
-8.33438e-10
-2.2194e-09
-1.87532e-10
-4.11125e-10
2.98512e-10
-5.72199e-10
5.82188e-10
-2.16141e-09
4.6429e-09
-4.71815e-09
1.02911e-08
-8.2414e-09
1.62923e-08
-1.27243e-08
2.2398e-08
-1.81475e-08
2.85154e-08
-2.44831e-08
3.45561e-08
-3.16947e-08
4.04441e-08
-3.97402e-08
4.61135e-08
-4.8573e-08
5.15122e-08
-5.81423e-08
5.6598e-08
-6.83954e-08
6.13407e-08
-7.92781e-08
6.57175e-08
-9.07339e-08
6.97139e-08
-1.02707e-07
7.33222e-08
-1.1514e-07
7.65393e-08
-1.27978e-07
7.93668e-08
-1.41165e-07
8.18094e-08
-1.54644e-07
8.38738e-08
-1.68363e-07
8.55692e-08
-1.82269e-07
8.69055e-08
-1.96309e-07
8.78931e-08
-2.10433e-07
8.85429e-08
-2.24592e-07
8.88657e-08
-2.38739e-07
8.8872e-08
-2.52825e-07
8.85715e-08
-2.66806e-07
8.79736e-08
-2.80637e-07
8.70867e-08
-2.94273e-07
8.59189e-08
-3.07674e-07
8.44772e-08
-3.20796e-07
8.27677e-08
-3.336e-07
8.07963e-08
-3.46043e-07
7.85681e-08
-3.58089e-07
7.60878e-08
-3.69696e-07
7.33597e-08
-3.80829e-07
7.03881e-08
-3.91448e-07
6.71768e-08
-4.01517e-07
6.37302e-08
-4.11002e-07
6.00528e-08
-4.19866e-07
5.61496e-08
-4.28077e-07
5.20259e-08
-4.356e-07
4.7688e-08
-4.42405e-07
4.31429e-08
-4.4846e-07
3.8399e-08
-4.53739e-07
3.34655e-08
-4.58212e-07
2.83531e-08
-4.61856e-07
2.30738e-08
-4.64648e-07
1.76411e-08
-4.66566e-07
1.20702e-08
-4.67592e-07
6.37793e-09
-4.67713e-07
5.82687e-10
-4.66915e-07
-5.29553e-09
-4.6519e-07
-1.1235e-08
-4.62532e-07
-1.72123e-08
-4.5894e-07
-2.32024e-08
-4.54417e-07
-2.91788e-08
-4.48968e-07
-3.51137e-08
-4.42606e-07
-4.09782e-08
-4.35345e-07
-4.67421e-08
-4.27205e-07
-5.23744e-08
-4.18211e-07
-5.78432e-08
-4.08394e-07
-6.31164e-08
-3.97787e-07
-6.81617e-08
-3.86428e-07
-7.29467e-08
-3.74363e-07
-7.74398e-08
-3.6164e-07
-8.16094e-08
-3.48311e-07
-8.54255e-08
-3.34435e-07
-8.88589e-08
-3.20071e-07
-9.18826e-08
-3.05286e-07
-9.44711e-08
-2.90148e-07
-9.66015e-08
-2.74728e-07
-9.82533e-08
-2.591e-07
-9.9409e-08
-2.43342e-07
-1.00054e-07
-2.27531e-07
-1.00178e-07
-2.11746e-07
-9.97732e-08
-1.96067e-07
-9.88366e-08
-1.80572e-07
-9.73692e-08
-1.65342e-07
-9.53762e-08
-1.50453e-07
-9.28672e-08
-1.3598e-07
-8.98567e-08
-1.21995e-07
-8.63641e-08
-1.08566e-07
-8.24139e-08
-9.57586e-08
-7.80355e-08
-8.36304e-08
-7.32642e-08
-7.22349e-08
-6.81403e-08
-6.16186e-08
-6.27104e-08
-5.18204e-08
-5.70273e-08
-4.28716e-08
-5.11505e-08
-3.47947e-08
-4.51468e-08
-2.7603e-08
-3.9091e-08
-2.13001e-08
-3.30665e-08
-1.58796e-08
-2.71667e-08
-1.13247e-08
-2.14959e-08
-7.60845e-09
-1.61713e-08
-4.69366e-09
-1.13246e-08
-2.53374e-09
-7.10477e-09
-1.07365e-09
-3.67949e-09
-2.51425e-10
-1.23335e-09
4.70875e-11
-6.58612e-10
1.24079e-09
-2.48556e-09
6.46983e-09
-5.40469e-09
1.32102e-08
-9.39211e-09
2.02797e-08
-1.44238e-08
2.74297e-08
-2.04667e-08
3.45583e-08
-2.74826e-08
4.15721e-08
-3.54265e-08
4.8388e-08
-4.42498e-08
5.49368e-08
-5.38997e-08
6.11622e-08
-6.43218e-08
6.70202e-08
-7.54584e-08
7.24772e-08
-8.72513e-08
7.75104e-08
-9.96411e-08
8.21038e-08
-1.12569e-07
8.62498e-08
-1.25974e-07
8.99448e-08
-1.39799e-07
9.31911e-08
-1.53983e-07
9.59939e-08
-1.68471e-07
9.83612e-08
-1.83204e-07
1.00303e-07
-1.98128e-07
1.01829e-07
-2.13188e-07
1.02953e-07
-2.28332e-07
1.03686e-07
-2.43507e-07
1.04041e-07
-2.58663e-07
1.04028e-07
-2.7375e-07
1.03659e-07
-2.88722e-07
1.02945e-07
-3.03529e-07
1.01895e-07
-3.18128e-07
1.00517e-07
-3.32471e-07
9.88209e-08
-3.46516e-07
9.68126e-08
-3.60219e-07
9.44991e-08
-3.73537e-07
9.18862e-08
-3.86429e-07
8.89794e-08
-3.98853e-07
8.57838e-08
-4.10769e-07
8.23041e-08
-4.22137e-07
7.85453e-08
-4.32919e-07
7.45123e-08
-4.43077e-07
7.02106e-08
-4.52574e-07
6.5646e-08
-4.61372e-07
6.08248e-08
-4.69439e-07
5.57544e-08
-4.76739e-07
5.04433e-08
-4.83241e-07
4.49012e-08
-4.88915e-07
3.9139e-08
-4.93731e-07
3.31691e-08
-4.97663e-07
2.70055e-08
-5.00686e-07
2.06641e-08
-5.02778e-07
1.41626e-08
-5.0392e-07
7.52038e-09
-5.04097e-07
7.58897e-10
-5.03294e-07
-6.09866e-09
-5.01501e-07
-1.30271e-08
-4.98715e-07
-1.99991e-08
-4.94931e-07
-2.69859e-08
-4.90153e-07
-3.39567e-08
-4.84387e-07
-4.08795e-08
-4.77645e-07
-4.77207e-08
-4.69942e-07
-5.44453e-08
-4.61299e-07
-6.10174e-08
-4.51742e-07
-6.74002e-08