/*--------------------------------*- C++ -*----------------------------------*\
| =========                 |                                                 |
| \\      /  F ield         | OpenFOAM: The Open Source CFD Toolbox           |
|  \\    /   O peration     | Version:  2512                                  |
|   \\  /    A nd           | Website:  www.openfoam.com                      |
|    \\/     M anipulation  |                                                 |
\*---------------------------------------------------------------------------*/
FoamFile
{
    version     2.0;
    format      ascii;
    arch        "LSB;label=32;scalar=64";
    class       volVectorField;
    location    "0.3";
    object      U;
}
// * * * * * * * * * * * * * * * * * * * * * * * * * * * * * * * * * * * * * //

dimensions      [0 1 -1 0 0 0 0];

internalField   nonuniform List<vector> 
10000
(
(5.67385e-06 -1.14931e-06 0)
(9.90093e-06 7.30822e-06 0)
(1.11201e-06 1.39634e-05 0)
(-1.69995e-05 1.2848e-05 0)
(-3.70076e-05 1.00826e-05 0)
(-5.73761e-05 8.56475e-06 0)
(-8.04022e-05 8.18166e-06 0)
(-0.000107847 8.83289e-06 0)
(-0.000140915 1.00836e-05 0)
(-0.000180148 1.15641e-05 0)
(-0.000225523 1.32951e-05 0)
(-0.000277092 1.49512e-05 0)
(-0.000334547 1.65418e-05 0)
(-0.000397125 1.80798e-05 0)
(-0.000464787 1.94689e-05 0)
(-0.000536779 2.0631e-05 0)
(-0.000612412 2.17166e-05 0)
(-0.000691556 2.26087e-05 0)
(-0.000773474 2.3315e-05 0)
(-0.000857667 2.39046e-05 0)
(-0.00094377 2.43472e-05 0)
(-0.00103135 2.46367e-05 0)
(-0.00111995 2.48657e-05 0)
(-0.00120925 2.50787e-05 0)
(-0.00129891 2.52157e-05 0)
(-0.00138861 2.52315e-05 0)
(-0.00147799 2.51401e-05 0)
(-0.00156674 2.49597e-05 0)
(-0.00165459 2.46742e-05 0)
(-0.00174126 2.42773e-05 0)
(-0.00182646 2.38033e-05 0)
(-0.00190992 2.32961e-05 0)
(-0.00199142 2.27559e-05 0)
(-0.00207074 2.21533e-05 0)
(-0.0021476 2.14731e-05 0)
(-0.00222177 2.07273e-05 0)
(-0.00229299 1.99115e-05 0)
(-0.00236105 1.89972e-05 0)
(-0.00242565 1.79837e-05 0)
(-0.00248651 1.6897e-05 0)
(-0.00254339 1.57545e-05 0)
(-0.00259605 1.45565e-05 0)
(-0.00264427 1.32857e-05 0)
(-0.00268781 1.19306e-05 0)
(-0.00272641 1.04978e-05 0)
(-0.00275985 8.98398e-06 0)
(-0.00278787 7.37622e-06 0)
(-0.00281025 5.69068e-06 0)
(-0.00282682 3.96577e-06 0)
(-0.00283737 2.21829e-06 0)
(-0.00284178 4.31674e-07 0)
(-0.0028399 -1.42332e-06 0)
(-0.0028316 -3.35848e-06 0)
(-0.00281676 -5.34e-06 0)
(-0.00279536 -7.30169e-06 0)
(-0.0027674 -9.20297e-06 0)
(-0.00273294 -1.10586e-05 0)
(-0.00269205 -1.29054e-05 0)
(-0.0026448 -1.47596e-05 0)
(-0.00259126 -1.66083e-05 0)
(-0.00253156 -1.84252e-05 0)
(-0.00246584 -2.01846e-05 0)
(-0.00239433 -2.18648e-05 0)
(-0.0023173 -2.3448e-05 0)
(-0.00223509 -2.49186e-05 0)
(-0.00214807 -2.62672e-05 0)
(-0.00205666 -2.74959e-05 0)
(-0.00196126 -2.86125e-05 0)
(-0.00186232 -2.96116e-05 0)
(-0.00176032 -3.04655e-05 0)
(-0.00165576 -3.11431e-05 0)
(-0.00154922 -3.16309e-05 0)
(-0.0014413 -3.19281e-05 0)
(-0.00133265 -3.20327e-05 0)
(-0.00122391 -3.19394e-05 0)
(-0.00111575 -3.16495e-05 0)
(-0.00100878 -3.11699e-05 0)
(-0.000903655 -3.05034e-05 0)
(-0.000800984 -2.96475e-05 0)
(-0.000701395 -2.86042e-05 0)
(-0.000605499 -2.73836e-05 0)
(-0.000513901 -2.5992e-05 0)
(-0.000427205 -2.4421e-05 0)
(-0.000346009 -2.26567e-05 0)
(-0.000270892 -2.06973e-05 0)
(-0.00020239 -1.85598e-05 0)
(-0.00014099 -1.62701e-05 0)
(-8.7114e-05 -1.38503e-05 0)
(-4.11171e-05 -1.13242e-05 0)
(-3.25868e-06 -8.72962e-06 0)
(2.63063e-05 -6.10343e-06 0)
(4.75342e-05 -3.47527e-06 0)
(6.05226e-05 -8.81421e-07 0)
(6.55485e-05 1.61804e-06 0)
(6.31515e-05 3.90304e-06 0)
(5.42649e-05 5.78296e-06 0)
(4.03596e-05 6.97497e-06 0)
(2.37744e-05 6.98321e-06 0)
(8.84312e-06 5.03842e-06 0)
(1.11756e-06 1.13517e-06 0)
(2.06467e-05 -1.75557e-05 0)
(4.29819e-05 -4.45601e-06 0)
(4.78216e-05 2.23929e-05 0)
(2.69354e-05 3.27384e-05 0)
(-1.32415e-05 3.73564e-05 0)
(-6.81711e-05 4.28902e-05 0)
(-0.000138821 5.1392e-05 0)
(-0.00022618 6.17283e-05 0)
(-0.000331305 7.34067e-05 0)
(-0.000454078 8.57309e-05 0)
(-0.00059434 9.77905e-05 0)
(-0.00075129 0.000109443 0)
(-0.000923831 0.000120345 0)
(-0.00111109 0.000130383 0)
(-0.00131138 0.000139343 0)
(-0.00152338 0.000147472 0)
(-0.00174595 0.000154422 0)
(-0.00197752 0.000160472 0)
(-0.00221676 0.000165551 0)
(-0.00246247 0.000169716 0)
(-0.00271335 0.000172987 0)
(-0.00296825 0.000175421 0)
(-0.00322608 0.000177117 0)
(-0.00348576 0.000178146 0)
(-0.0037463 0.000178508 0)
(-0.00400675 0.000178219 0)
(-0.00426617 0.000177316 0)
(-0.00452369 0.00017581 0)
(-0.00477847 0.000173701 0)
(-0.00502969 0.000171023 0)
(-0.00527654 0.000167831 0)
(-0.00551827 0.000164146 0)
(-0.00575413 0.00015996 0)
(-0.00598342 0.000155283 0)
(-0.00620539 0.000150143 0)
(-0.00641929 0.00014453 0)
(-0.0066244 0.000138408 0)
(-0.00682005 0.000131746 0)
(-0.00700551 0.000124551 0)
(-0.00718005 0.000116864 0)
(-0.00734296 0.000108703 0)
(-0.00749356 0.000100065 0)
(-0.0076312 9.09561e-05 0)
(-0.00775524 8.13901e-05 0)
(-0.00786498 7.13616e-05 0)
(-0.00795976 6.0857e-05 0)
(-0.00803904 4.98848e-05 0)
(-0.00810228 3.84954e-05 0)
(-0.0081489 2.67628e-05 0)
(-0.00817843 1.4741e-05 0)
(-0.00819048 2.4445e-06 0)
(-0.0081847 -1.0126e-05 0)
(-0.00816079 -2.29361e-05 0)
(-0.00811854 -3.58961e-05 0)
(-0.00805783 -4.88856e-05 0)
(-0.0079786 -6.18085e-05 0)
(-0.00788093 -7.46187e-05 0)
(-0.00776498 -8.72964e-05 0)
(-0.007631 -9.98162e-05 0)
(-0.00747924 -0.000112133 0)
(-0.00731011 -0.000124173 0)
(-0.00712418 -0.000135836 0)
(-0.00692212 -0.000147007 0)
(-0.00670466 -0.000157573 0)
(-0.0064727 -0.000167438 0)
(-0.00622723 -0.00017653 0)
(-0.00596936 -0.000184808 0)
(-0.00570027 -0.000192243 0)
(-0.00542127 -0.000198783 0)
(-0.00513376 -0.00020434 0)
(-0.0048392 -0.000208807 0)
(-0.00453914 -0.000212101 0)
(-0.00423519 -0.000214175 0)
(-0.00392909 -0.000215003 0)
(-0.00362259 -0.000214568 0)
(-0.00331747 -0.00021286 0)
(-0.00301549 -0.000209888 0)
(-0.00271842 -0.000205668 0)
(-0.00242803 -0.000200216 0)
(-0.00214609 -0.000193541 0)
(-0.00187434 -0.000185657 0)
(-0.00161446 -0.000176581 0)
(-0.00136807 -0.000166335 0)
(-0.00113674 -0.000154949 0)
(-0.00092195 -0.000142479 0)
(-0.000725067 -0.000129017 0)
(-0.000547338 -0.000114682 0)
(-0.000389842 -9.96098e-05 0)
(-0.000253446 -8.39461e-05 0)
(-0.000138767 -6.78717e-05 0)
(-4.61391e-05 -5.1614e-05 0)
(2.44157e-05 -3.54406e-05 0)
(7.32673e-05 -1.96764e-05 0)
(0.0001013 -4.7483e-06 0)
(0.000110092 8.74078e-06 0)
(0.00010214 1.98896e-05 0)
(8.1092e-05 2.73883e-05 0)
(5.20697e-05 2.9331e-05 0)
(2.31815e-05 2.32865e-05 0)
(4.97248e-06 8.74682e-06 0)
(2.68839e-05 -5.34821e-05 0)
(6.32489e-05 -3.53291e-05 0)
(8.29779e-05 2.52196e-05 0)
(6.48067e-05 6.52493e-05 0)
(1.04087e-05 9.48102e-05 0)
(-7.53692e-05 0.00012461 0)
(-0.000191976 0.000156468 0)
(-0.000339341 0.000190631 0)
(-0.000516306 0.000226042 0)
(-0.000722663 0.000261266 0)
(-0.000956739 0.000295622 0)
(-0.00121697 0.000328251 0)
(-0.00150194 0.000358484 0)
(-0.00180934 0.000386245 0)
(-0.00213726 0.000411373 0)
(-0.00248361 0.000433645 0)
(-0.00284605 0.00045313 0)
(-0.00322263 0.000469988 0)
(-0.0036114 0.000484166 0)
(-0.00401011 0.000495855 0)
(-0.00441698 0.00050512 0)
(-0.00483021 0.000512054 0)
(-0.00524795 0.000516832 0)
(-0.00566854 0.000519569 0)
(-0.0060904 0.000520333 0)
(-0.00651198 0.00051922 0)
(-0.00693177 0.000516329 0)
(-0.00734837 0.000511712 0)
(-0.00776045 0.000505416 0)
(-0.00816667 0.000497518 0)
(-0.0085657 0.000488086 0)
(-0.00895628 0.000477148 0)
(-0.00933723 0.000464714 0)
(-0.00970735 0.00045081 0)
(-0.0100654 0.000435488 0)
(-0.0104102 0.000418763 0)
(-0.0107406 0.000400591 0)
(-0.0110555 0.000380952 0)
(-0.0113538 0.000359867 0)
(-0.0116342 0.000337371 0)
(-0.0118957 0.000313496 0)
(-0.0121373 0.000288261 0)
(-0.0123578 0.000261683 0)
(-0.0125563 0.000233804 0)
(-0.0127316 0.00020466 0)
(-0.0128829 0.000174262 0)
(-0.0130092 0.000142654 0)
(-0.0131097 0.000109943 0)
(-0.0131836 7.62573e-05 0)
(-0.0132302 4.1709e-05 0)
(-0.0132488 6.39458e-06 0)
(-0.013239 -2.9588e-05 0)
(-0.0132003 -6.61078e-05 0)
(-0.0131324 -0.000102979 0)
(-0.0130351 -0.000139988 0)
(-0.0129084 -0.000176941 0)
(-0.0127523 -0.000213671 0)
(-0.012567 -0.000250025 0)
(-0.012353 -0.000285843 0)
(-0.0121108 -0.000320947 0)
(-0.0118411 -0.000355137 0)
(-0.0115447 -0.000388179 0)
(-0.0112228 -0.000419811 0)
(-0.0108766 -0.00044977 0)
(-0.0105074 -0.000477812 0)
(-0.0101168 -0.000503719 0)
(-0.00970658 -0.000527312 0)
(-0.00927858 -0.000548437 0)
(-0.00883489 -0.000566925 0)
(-0.00837772 -0.000582578 0)
(-0.00790939 -0.000595184 0)
(-0.00743233 -0.000604558 0)
(-0.00694908 -0.000610564 0)
(-0.00646229 -0.000613108 0)
(-0.00597466 -0.000612126 0)
(-0.00548897 -0.000607581 0)
(-0.00500797 -0.000599468 0)
(-0.00453445 -0.000587804 0)
(-0.00407122 -0.000572624 0)
(-0.00362107 -0.000553972 0)
(-0.00318672 -0.000531908 0)
(-0.00277078 -0.000506512 0)
(-0.00237576 -0.000477892 0)
(-0.00200404 -0.000446191 0)
(-0.00165786 -0.000411606 0)
(-0.00133927 -0.000374392 0)
(-0.00105011 -0.000334869 0)
(-0.000791967 -0.000293403 0)
(-0.000566089 -0.000250417 0)
(-0.000373367 -0.000206414 0)
(-0.000214256 -0.000162009 0)
(-8.87146e-05 -0.000117951 0)
(3.90709e-06 -7.5165e-05 0)
(6.50102e-05 -3.48273e-05 0)
(9.69711e-05 1.4983e-06 0)
(0.000103389 3.16854e-05 0)
(8.9269e-05 5.28596e-05 0)
(6.12445e-05 6.11884e-05 0)
(2.9261e-05 5.21935e-05 0)
(6.91546e-06 2.35364e-05 0)
(2.19035e-05 -9.15808e-05 0)
(5.20013e-05 -7.07721e-05 0)
(6.51074e-05 2.65074e-05 0)
(3.49737e-05 0.000107598 0)
(-4.14004e-05 0.000177847 0)
(-0.000162076 0.000246114 0)
(-0.000326678 0.000315674 0)
(-0.000533051 0.000386363 0)
(-0.000780788 0.000456888 0)
(-0.00106758 0.000525915 0)
(-0.00139144 0.00059222 0)
(-0.00175044 0.000654625 0)
(-0.00214172 0.000712615 0)
(-0.00256281 0.000765602 0)
(-0.00301093 0.000813471 0)
(-0.00348331 0.000855987 0)
(-0.00397714 0.000893374 0)
(-0.00448958 0.000925476 0)
(-0.00501803 0.000952654 0)
(-0.00555984 0.000975029 0)
(-0.0061125 0.000992757 0)
(-0.00667351 0.0010061 0)
(-0.00724052 0.00101526 0)
(-0.00781131 0.00102039 0)
(-0.00838371 0.00102168 0)
(-0.00895557 0.00101931 0)
(-0.00952493 0.00101344 0)
(-0.0100899 0.00100417 0)
(-0.0106486 0.000991605 0)
(-0.0111993 0.000975906 0)
(-0.01174 0.000957174 0)
(-0.0122693 0.000935442 0)
(-0.0127853 0.000910746 0)
(-0.0132864 0.000883162 0)
(-0.013771 0.000852751 0)
(-0.0142375 0.00081953 0)
(-0.0146843 0.000783487 0)
(-0.0151099 0.000744633 0)
(-0.0155127 0.00070302 0)
(-0.0158912 0.000658694 0)
(-0.016244 0.000611677 0)
(-0.0165696 0.000562011 0)
(-0.0168665 0.000509776 0)
(-0.0171335 0.000455049 0)
(-0.0173691 0.00039789 0)
(-0.0175721 0.000338385 0)
(-0.0177414 0.00027666 0)
(-0.0178758 0.000212888 0)
(-0.0179743 0.000147267 0)
(-0.0180359 7.99965e-05 0)
(-0.0180599 1.12696e-05 0)
(-0.0180456 -5.86804e-05 0)
(-0.0179925 -0.00012956 0)
(-0.0179001 -0.000201044 0)
(-0.0177683 -0.000272805 0)
(-0.017597 -0.00034452 0)
(-0.0173863 -0.000415848 0)
(-0.0171366 -0.000486431 0)
(-0.0168483 -0.000555908 0)
(-0.0165222 -0.000623906 0)
(-0.0161594 -0.000690027 0)
(-0.015761 -0.000753843 0)
(-0.0153284 -0.000814906 0)
(-0.0148634 -0.000872755 0)
(-0.0143677 -0.000926943 0)
(-0.0138434 -0.000977061 0)
(-0.0132929 -0.00102273 0)
(-0.0127186 -0.0010636 0)
(-0.0121233 -0.0010993 0)
(-0.01151 -0.0011295 0)
(-0.0108817 -0.00115385 0)
(-0.0102417 -0.00117205 0)
(-0.00959321 -0.00118385 0)
(-0.00893983 -0.00118906 0)
(-0.0082851 -0.00118755 0)
(-0.00763265 -0.00117921 0)
(-0.00698614 -0.00116402 0)
(-0.00634927 -0.00114198 0)
(-0.00572573 -0.00111317 0)
(-0.00511919 -0.00107768 0)
(-0.00453321 -0.00103566 0)
(-0.00397123 -0.000987298 0)
(-0.00343653 -0.000932835 0)
(-0.0029322 -0.000872599 0)
(-0.00246115 -0.000806997 0)
(-0.00202602 -0.000736527 0)
(-0.00162916 -0.000661791 0)
(-0.00127254 -0.000583494 0)
(-0.00095773 -0.000502453 0)
(-0.000685828 -0.00041963 0)
(-0.000457372 -0.000336176 0)
(-0.000272254 -0.000253495 0)
(-0.000129584 -0.000173318 0)
(-2.75504e-05 -9.77943e-05 0)
(3.67723e-05 -2.9663e-05 0)
(6.76604e-05 2.753e-05 0)
(7.08984e-05 6.91864e-05 0)
(5.39537e-05 8.94408e-05 0)
(2.76606e-05 8.1494e-05 0)
(6.93583e-06 4.00114e-05 0)
(1.36924e-05 -0.000117321 0)
(2.70204e-05 -9.08955e-05 0)
(1.75239e-05 4.38125e-05 0)
(-3.76653e-05 0.000172548 0)
(-0.00014659 0.000292344 0)
(-0.000309103 0.000410224 0)
(-0.000524591 0.00052829 0)
(-0.000792592 0.000645868 0)
(-0.00111047 0.000761258 0)
(-0.00147647 0.000873221 0)
(-0.00188781 0.000979661 0)
(-0.00234145 0.00107971 0)
(-0.00283464 0.0011724 0)
(-0.00336389 0.00125702 0)
(-0.00392601 0.0013335 0)
(-0.0045176 0.0014015 0)
(-0.00513519 0.00146125 0)
(-0.00577559 0.00151275 0)
(-0.00643541 0.0015563 0)
(-0.00711151 0.00159213 0)
(-0.00780079 0.00162055 0)
(-0.00850027 0.00164192 0)
(-0.00920707 0.00165651 0)
(-0.00991842 0.0016646 0)
(-0.0106316 0.00166649 0)
(-0.011344 0.00166245 0)
(-0.0120533 0.00165265 0)
(-0.0127569 0.0016373 0)
(-0.0134526 0.00161662 0)
(-0.0141381 0.00159078 0)
(-0.0148113 0.00155991 0)
(-0.0154699 0.00152413 0)
(-0.0161119 0.00148352 0)
(-0.0167352 0.0014382 0)
(-0.0173377 0.00138822 0)
(-0.0179175 0.00133362 0)
(-0.0184727 0.00127442 0)
(-0.0190012 0.00121071 0)
(-0.0195012 0.00114254 0)
(-0.0199708 0.00106996 0)
(-0.0204083 0.000993038 0)
(-0.0208118 0.000911872 0)
(-0.0211795 0.000826582 0)
(-0.0215098 0.000737294 0)
(-0.0218011 0.000644121 0)
(-0.0220518 0.000547223 0)
(-0.0222606 0.000446833 0)
(-0.022426 0.000343235 0)
(-0.0225468 0.00023672 0)
(-0.0226219 0.000127593 0)
(-0.0226503 1.61869e-05 0)
(-0.0226314 -9.71076e-05 0)
(-0.0225644 -0.000211835 0)
(-0.0224488 -0.000327494 0)
(-0.0222846 -0.000443571 0)
(-0.0220715 -0.000559544 0)
(-0.0218098 -0.000674869 0)
(-0.0215 -0.000788961 0)
(-0.0211426 -0.000901209 0)
(-0.0207387 -0.00101099 0)
(-0.0202894 -0.00111767 0)
(-0.0197964 -0.00122057 0)
(-0.0192614 -0.00131897 0)
(-0.0186863 -0.00141219 0)
(-0.0180735 -0.00149954 0)
(-0.0174255 -0.00158036 0)
(-0.0167452 -0.00165404 0)
(-0.0160356 -0.00171999 0)
(-0.0153002 -0.00177761 0)
(-0.0145424 -0.00182637 0)
(-0.013766 -0.00186574 0)
(-0.012975 -0.0018953 0)
(-0.0121734 -0.00191465 0)
(-0.0113655 -0.00192349 0)
(-0.0105556 -0.0019216 0)
(-0.00974819 -0.00190881 0)
(-0.00894762 -0.00188506 0)
(-0.00815843 -0.00185035 0)
(-0.00738511 -0.00180478 0)
(-0.00663209 -0.00174853 0)
(-0.00590365 -0.00168186 0)
(-0.00520396 -0.0016051 0)
(-0.00453697 -0.00151869 0)
(-0.00390643 -0.00142318 0)
(-0.00331581 -0.00131926 0)
(-0.00276827 -0.00120773 0)
(-0.0022666 -0.00108956 0)
(-0.00181313 -0.000965882 0)
(-0.00140969 -0.000838001 0)
(-0.00105754 -0.000707464 0)
(-0.00075729 -0.000576089 0)
(-0.000508797 -0.00044605 0)
(-0.000311024 -0.00031999 0)
(-0.000161898 -0.000201149 0)
(-5.81574e-05 -9.35415e-05 0)
(4.84502e-06 -2.19167e-06 0)
(3.32787e-05 6.6587e-05 0)
(3.49933e-05 0.000104916 0)
(2.09531e-05 0.000103595 0)
(5.84913e-06 5.40738e-05 0)
(6.13266e-06 -0.000126395 0)
(-9.83389e-07 -8.41913e-05 0)
(-4.02487e-05 9.1126e-05 0)
(-0.000130693 0.000272017 0)
(-0.000280198 0.000448191 0)
(-0.000490311 0.000624058 0)
(-0.000762008 0.000798991 0)
(-0.00109346 0.000971964 0)
(-0.00148304 0.00114077 0)
(-0.00192791 0.00130298 0)
(-0.00242517 0.00145711 0)
(-0.00297139 0.00160141 0)
(-0.0035631 0.0017349 0)
(-0.00419647 0.00185696 0)
(-0.00486769 0.001967 0)
(-0.00557299 0.00206518 0)
(-0.00630838 0.00215129 0)
(-0.00707005 0.00222569 0)
(-0.00785425 0.00228863 0)
(-0.00865729 0.00234044 0)
(-0.00947555 0.00238155 0)
(-0.0103056 0.00241239 0)
(-0.011144 0.00243334 0)
(-0.0119876 0.00244484 0)
(-0.0128332 0.00244728 0)
(-0.0136777 0.002441 0)
(-0.0145183 0.0024263 0)
(-0.0153522 0.0024035 0)
(-0.0161764 0.00237287 0)
(-0.0169885 0.00233462 0)
(-0.0177857 0.00228894 0)
(-0.0185656 0.002236 0)
(-0.0193256 0.00217598 0)
(-0.0200633 0.002109 0)
(-0.0207762 0.00203516 0)
(-0.0214621 0.00195451 0)
(-0.0221186 0.00186716 0)
(-0.0227434 0.0017732 0)
(-0.0233343 0.00167273 0)
(-0.023889 0.00156582 0)
(-0.0244055 0.00145259 0)
(-0.0248816 0.00133321 0)
(-0.0253153 0.00120784 0)
(-0.0257046 0.00107668 0)
(-0.0260477 0.000939931 0)
(-0.0263427 0.000797845 0)
(-0.0265881 0.000650764 0)
(-0.0267822 0.000499078 0)
(-0.0269236 0.000343207 0)
(-0.027011 0.000183612 0)
(-0.0270435 2.08039e-05 0)
(-0.02702 -0.000144643 0)
(-0.0269399 -0.000312087 0)
(-0.0268026 -0.000480836 0)
(-0.0266079 -0.000650162 0)
(-0.0263559 -0.000819293 0)
(-0.0260467 -0.000987409 0)
(-0.0256808 -0.00115366 0)
(-0.0252592 -0.00131716 0)
(-0.0247828 -0.00147701 0)
(-0.0242533 -0.00163226 0)
(-0.0236724 -0.00178196 0)
(-0.0230421 -0.0019251 0)
(-0.0223648 -0.00206069 0)
(-0.0216431 -0.00218776 0)
(-0.0208802 -0.00230536 0)
(-0.0200793 -0.00241261 0)
(-0.0192439 -0.00250864 0)
(-0.0183781 -0.00259261 0)
(-0.0174859 -0.00266373 0)
(-0.0165716 -0.0027213 0)
(-0.01564 -0.00276469 0)
(-0.0146956 -0.00279338 0)
(-0.0137434 -0.00280691 0)
(-0.0127885 -0.00280495 0)
(-0.011836 -0.00278728 0)
(-0.010891 -0.0027538 0)
(-0.00995873 -0.00270452 0)
(-0.00904437 -0.00263958 0)
(-0.00815305 -0.00255924 0)
(-0.00728972 -0.00246389 0)
(-0.00645915 -0.00235406 0)
(-0.00566592 -0.00223041 0)
(-0.00491435 -0.00209378 0)
(-0.00420842 -0.00194516 0)
(-0.00355174 -0.00178578 0)
(-0.0029475 -0.00161701 0)
(-0.00239835 -0.00144048 0)
(-0.00190637 -0.00125808 0)
(-0.00147298 -0.00107203 0)
(-0.00109889 -0.000884905 0)
(-0.000783951 -0.000699757 0)
(-0.000527081 -0.000520212 0)
(-0.000326098 -0.000350649 0)
(-0.000177596 -0.000196379 0)
(-7.67944e-05 -6.39024e-05 0)
(-1.74276e-05 3.8798e-05 0)
(8.38626e-06 0.000101923 0)
(1.11433e-05 0.000114014 0)
(4.18056e-06 6.36439e-05 0)
(-3.16341e-07 -0.000120162 0)
(-2.73799e-05 -4.82167e-05 0)
(-0.000100603 0.000174155 0)
(-0.000231291 0.000412288 0)
(-0.000427085 0.000651911 0)
(-0.00069023 0.000891941 0)
(-0.00102129 0.00113132 0)
(-0.00141919 0.00136688 0)
(-0.00188172 0.00159581 0)
(-0.00240606 0.00181529 0)
(-0.00298863 0.00202313 0)
(-0.00362583 0.00221762 0)
(-0.0043137 0.00239733 0)
(-0.0050481 0.00256165 0)
(-0.00582472 0.00270988 0)
(-0.00663928 0.00284208 0)
(-0.00748751 0.00295819 0)
(-0.00836505 0.00305851 0)
(-0.00926777 0.00314339 0)
(-0.0101915 0.00321332 0)
(-0.0111322 0.00326879 0)
(-0.012086 0.00331031 0)
(-0.0130491 0.00333842 0)
(-0.0140178 0.00335367 0)
(-0.0149885 0.00335655 0)
(-0.0159578 0.00334748 0)
(-0.0169224 0.00332691 0)
(-0.017879 0.00329525 0)
(-0.0188245 0.00325285 0)
(-0.0197558 0.00319999 0)
(-0.0206699 0.00313692 0)
(-0.021564 0.00306388 0)
(-0.0224351 0.00298111 0)
(-0.0232804 0.00288876 0)
(-0.0240972 0.00278696 0)
(-0.0248828 0.00267586 0)
(-0.0256346 0.00255559 0)
(-0.0263498 0.00242629 0)
(-0.027026 0.00228808 0)
(-0.0276607 0.0021411 0)
(-0.0282514 0.00198554 0)
(-0.0287957 0.00182161 0)
(-0.0292913 0.00164956 0)
(-0.0297361 0.00146965 0)
(-0.0301278 0.00128219 0)
(-0.0304645 0.00108757 0)
(-0.0307442 0.000886262 0)
(-0.0309653 0.000678763 0)
(-0.0311261 0.000465634 0)
(-0.0312253 0.000247513 0)
(-0.0312616 2.51277e-05 0)
(-0.031234 -0.000200727 0)
(-0.0311418 -0.000429197 0)
(-0.0309843 -0.000659365 0)
(-0.0307615 -0.000890251 0)
(-0.0304732 -0.00112081 0)
(-0.0301197 -0.00134991 0)
(-0.0297017 -0.0015764 0)
(-0.0292202 -0.00179907 0)
(-0.0286765 -0.00201671 0)
(-0.0280722 -0.00222804 0)
(-0.0274093 -0.00243175 0)
(-0.0266902 -0.00262651 0)
(-0.0259176 -0.00281102 0)
(-0.0250945 -0.00298396 0)
(-0.0242242 -0.00314408 0)
(-0.0233107 -0.00329015 0)
(-0.0223578 -0.00342101 0)
(-0.0213701 -0.00353554 0)
(-0.020352 -0.00363269 0)
(-0.0193086 -0.00371153 0)
(-0.018245 -0.00377122 0)
(-0.0171665 -0.00381105 0)
(-0.0160788 -0.00383044 0)
(-0.0149873 -0.00382893 0)
(-0.0138979 -0.00380621 0)
(-0.0128164 -0.00376216 0)
(-0.0117487 -0.00369681 0)
(-0.0107005 -0.00361034 0)
(-0.00967751 -0.00350312 0)
(-0.00868539 -0.0033757 0)
(-0.00772945 -0.00322881 0)
(-0.0068148 -0.00306338 0)
(-0.00594628 -0.00288056 0)
(-0.00512836 -0.00268174 0)
(-0.00436506 -0.00246856 0)
(-0.00365991 -0.00224292 0)
(-0.00301588 -0.00200701 0)
(-0.0024353 -0.00176335 0)
(-0.00191978 -0.00151489 0)
(-0.00147015 -0.00126505 0)
(-0.00108634 -0.00101781 0)
(-0.000767299 -0.000777832 0)
(-0.000510854 -0.000550651 0)
(-0.000313632 -0.000342856 0)
(-0.000170915 -0.000162368 0)
(-7.65688e-05 -1.87491e-05 0)
(-2.29414e-05 7.64537e-05 0)
(-4.35949e-07 0.000109807 0)
(2.2288e-06 6.7548e-05 0)
(-5.54489e-06 -0.000100203 0)
(-5.17878e-05 1.72862e-05 0)
(-0.000159464 0.000295245 0)
(-0.000333219 0.000598431 0)
(-0.000578746 0.000906896 0)
(-0.000898168 0.00121823 0)
(-0.00129172 0.0015281 0)
(-0.0017581 0.00183249 0)
(-0.00229502 0.00212748 0)
(-0.00289916 0.00240994 0)
(-0.0035668 0.002677 0)
(-0.00429399 0.00292656 0)
(-0.00507636 0.00315725 0)
(-0.00590934 0.00336797 0)
(-0.00678832 0.00355834 0)
(-0.00770863 0.00372796 0)
(-0.00866561 0.00387712 0)
(-0.00965454 0.00400599 0)
(-0.0106708 0.00411504 0)
(-0.01171 0.00420488 0)
(-0.0127676 0.00427607 0)
(-0.0138394 0.00432924 0)
(-0.0149211 0.0043651 0)
(-0.0160087 0.00438428 0)
(-0.0170982 0.00438735 0)
(-0.0181859 0.00437491 0)
(-0.0192681 0.0043475 0)
(-0.020341 0.00430561 0)
(-0.0214013 0.00424967 0)
(-0.0224455 0.00418005 0)
(-0.0234703 0.0040971 0)
(-0.0244724 0.00400115 0)
(-0.0254485 0.00389244 0)
(-0.0263957 0.00377119 0)
(-0.0273107 0.00363759 0)
(-0.0281906 0.00349185 0)
(-0.0290324 0.00333416 0)
(-0.0298332 0.0031647 0)
(-0.0305901 0.00298363 0)
(-0.0313004 0.00279118 0)
(-0.0319613 0.0025876 0)
(-0.0325701 0.00237319 0)
(-0.0331244 0.00214824 0)
(-0.0336216 0.00191313 0)
(-0.0340595 0.00166829 0)
(-0.0344357 0.00141425 0)
(-0.0347482 0.00115162 0)
(-0.0349951 0.000881045 0)
(-0.0351747 0.000603261 0)
(-0.0352853 0.000319102 0)
(-0.0353257 2.95122e-05 0)
(-0.0352948 -0.000264475 0)
(-0.0351917 -0.000561753 0)
(-0.0350158 -0.000861138 0)
(-0.0347669 -0.00116136 0)
(-0.0344451 -0.00146107 0)
(-0.0340506 -0.00175881 0)
(-0.0335842 -0.00205309 0)
(-0.033047 -0.00234236 0)
(-0.0324405 -0.00262503 0)
(-0.0317664 -0.00289946 0)
(-0.031027 -0.00316397 0)
(-0.0302249 -0.00341685 0)
(-0.0293631 -0.00365644 0)
(-0.0284448 -0.00388108 0)
(-0.027474 -0.00408914 0)
(-0.0264547 -0.00427905 0)
(-0.0253914 -0.00444929 0)
(-0.0242889 -0.00459845 0)
(-0.0231523 -0.00472519 0)
(-0.0219871 -0.00482832 0)
(-0.0207989 -0.00490678 0)
(-0.0195937 -0.00495966 0)
(-0.0183774 -0.0049862 0)
(-0.0171564 -0.00498583 0)
(-0.0159369 -0.00495817 0)
(-0.0147255 -0.00490303 0)
(-0.0135283 -0.00482048 0)
(-0.012352 -0.00471077 0)
(-0.0112028 -0.00457438 0)
(-0.0100867 -0.00441203 0)
(-0.00900967 -0.00422469 0)
(-0.00797733 -0.00401358 0)
(-0.00699499 -0.00378022 0)
(-0.00606756 -0.00352641 0)
(-0.00519946 -0.00325427 0)
(-0.00439457 -0.00296623 0)
(-0.00365615 -0.00266514 0)
(-0.00298679 -0.00235422 0)
(-0.00238833 -0.00203718 0)
(-0.00186178 -0.00171832 0)
(-0.0014072 -0.00140259 0)
(-0.00102365 -0.00109571 0)
(-0.000709088 -0.000804345 0)
(-0.000460301 -0.00053634 0)
(-0.0002728 -0.000300949 0)
(-0.000140756 -0.000109181 0)
(-5.69376e-05 2.58872e-05 0)
(-1.29163e-05 8.91901e-05 0)
(1.6998e-07 6.51696e-05 0)
(-9.84558e-06 -6.81661e-05 0)
(-7.39045e-05 0.000111099 0)
(-0.000215513 0.000455793 0)
(-0.000433408 0.000831437 0)
(-0.000730532 0.00121646 0)
(-0.00110796 0.00160495 0)
(-0.00156591 0.00199141 0)
(-0.00210241 0.0023702 0)
(-0.00271453 0.00273679 0)
(-0.00339892 0.00308708 0)
(-0.00415155 0.00341804 0)
(-0.00496787 0.00372709 0)
(-0.00584329 0.00401271 0)
(-0.00677294 0.00427359 0)
(-0.00775186 0.00450927 0)
(-0.00877501 0.00471938 0)
(-0.00983733 0.00490411 0)
(-0.0109339 0.00506377 0)
(-0.0120596 0.0051989 0)
(-0.0132097 0.00531011 0)
(-0.0143795 0.00539813 0)
(-0.0155643 0.00546375 0)
(-0.0167594 0.00550775 0)
(-0.0179606 0.00553086 0)
(-0.0191636 0.00553381 0)
(-0.0203642 0.00551732 0)
(-0.0215583 0.00548205 0)
(-0.0227421 0.00542856 0)
(-0.0239116 0.00535735 0)
(-0.0250632 0.00526893 0)
(-0.0261932 0.00516374 0)
(-0.027298 0.00504214 0)
(-0.028374 0.00490444 0)
(-0.029418 0.00475093 0)
(-0.0304264 0.00458188 0)
(-0.0313959 0.00439756 0)
(-0.0323234 0.0041982 0)
(-0.0332055 0.00398402 0)
(-0.0340393 0.00375527 0)
(-0.0348216 0.00351225 0)
(-0.0355494 0.00325531 0)
(-0.0362198 0.00298479 0)
(-0.0368301 0.0027011 0)
(-0.0373777 0.00240473 0)
(-0.0378598 0.00209625 0)
(-0.0382741 0.00177633 0)
(-0.0386183 0.00144571 0)
(-0.0388903 0.00110523 0)
(-0.0390884 0.000755828 0)
(-0.0392106 0.000398559 0)
(-0.0392557 3.4605e-05 0)
(-0.0392225 -0.000334759 0)
(-0.03911 -0.000708156 0)
(-0.0389176 -0.0010841 0)
(-0.0386451 -0.00146099 0)
(-0.0382924 -0.00183713 0)
(-0.0378601 -0.00221073 0)
(-0.0373488 -0.00257993 0)
(-0.0367598 -0.00294279 0)
(-0.0360947 -0.00329735 0)
(-0.0353554 -0.00364155 0)
(-0.0345444 -0.0039733 0)
(-0.0336644 -0.0042905 0)
(-0.0327188 -0.00459108 0)
(-0.0317111 -0.00487298 0)
(-0.0306455 -0.0051342 0)
(-0.0295264 -0.00537278 0)
(-0.0283587 -0.00558684 0)
(-0.0271476 -0.00577462 0)
(-0.0258987 -0.00593448 0)
(-0.0246178 -0.00606495 0)
(-0.0233112 -0.00616471 0)
(-0.0219851 -0.00623263 0)
(-0.0206462 -0.00626778 0)
(-0.0193013 -0.00626945 0)
(-0.0179571 -0.00623718 0)
(-0.0166208 -0.00617076 0)
(-0.0152992 -0.00607025 0)
(-0.0139992 -0.00593597 0)
(-0.0127278 -0.00576854 0)
(-0.0114914 -0.00556888 0)
(-0.0102966 -0.00533819 0)
(-0.00914929 -0.00507804 0)
(-0.00805539 -0.00479034 0)
(-0.00702019 -0.00447732 0)
(-0.0060485 -0.00414163 0)
(-0.00514456 -0.0037863 0)
(-0.00431194 -0.00341481 0)
(-0.00355351 -0.00303117 0)
(-0.00287137 -0.00263989 0)
(-0.00226674 -0.00224617 0)
(-0.0017399 -0.00185593 0)
(-0.00129011 -0.00147594 0)
(-0.000915521 -0.00111401 0)
(-0.000613206 -0.000779154 0)
(-0.000379028 -0.00048187 0)
(-0.000207588 -0.000234462 0)
(-9.22017e-05 -5.13092e-05 0)
(-2.57422e-05 5.12233e-05 0)
(-1.8971e-06 5.62546e-05 0)
(-1.35415e-05 -2.53285e-05 0)
(-9.38961e-05 0.000232131 0)
(-0.000268719 0.000654916 0)
(-0.000530412 0.00111254 0)
(-0.000879386 0.00158131 0)
(-0.00131616 0.0020537 0)
(-0.00183936 0.00252242 0)
(-0.00244664 0.00298109 0)
(-0.00313469 0.00342413 0)
(-0.00389951 0.00384686 0)
(-0.00473667 0.00424585 0)
(-0.00564146 0.00461833 0)
(-0.00660881 0.00496228 0)
(-0.00763351 0.00527658 0)
(-0.00871026 0.00556033 0)
(-0.00983378 0.00581346 0)
(-0.0109987 0.00603596 0)
(-0.0121996 0.00622827 0)
(-0.0134312 0.00639098 0)
(-0.0146886 0.00652478 0)
(-0.0159665 0.00663054 0)
(-0.0172599 0.00670917 0)
(-0.0185641 0.00676152 0)
(-0.0198744 0.00678847 0)
(-0.0211861 0.00679089 0)
(-0.0224948 0.00676963 0)
(-0.0237962 0.00672542 0)
(-0.025086 0.00665893 0)
(-0.02636 0.0065708 0)
(-0.0276143 0.0064616 0)
(-0.0288448 0.00633186 0)
(-0.0300477 0.00618201 0)
(-0.0312193 0.00601243 0)
(-0.0323558 0.00582349 0)
(-0.0334535 0.00561553 0)
(-0.0345088 0.00538887 0)
(-0.0355182 0.00514379 0)
(-0.0364784 0.0048806 0)
(-0.0373858 0.00459963 0)
(-0.0382372 0.00430127 0)
(-0.0390293 0.00398591 0)
(-0.0397591 0.003654 0)
(-0.0404235 0.00330606 0)
(-0.0410197 0.00294272 0)
(-0.0415448 0.0025647 0)
(-0.0419963 0.00217279 0)
(-0.0423716 0.00176793 0)
(-0.0426686 0.00135112 0)
(-0.0428853 0.000923532 0)
(-0.0430198 0.000486474 0)
(-0.0430706 4.13769e-05 0)
(-0.0430363 -0.000410215 0)
(-0.0429161 -0.000866634 0)
(-0.0427092 -0.00132606 0)
(-0.0424155 -0.00178656 0)
(-0.0420348 -0.00224605 0)
(-0.0415677 -0.00270238 0)
(-0.0410149 -0.0031533 0)
(-0.0403779 -0.00359645 0)
(-0.0396581 -0.00402945 0)
(-0.0388579 -0.00444979 0)
(-0.0379796 -0.00485497 0)
(-0.0370265 -0.00524246 0)
(-0.0360018 -0.00560974 0)
(-0.0349097 -0.00595434 0)
(-0.0337543 -0.00627382 0)
(-0.0325406 -0.00656582 0)
(-0.0312737 -0.00682807 0)
(-0.0299592 -0.00705844 0)
(-0.0286031 -0.00725498 0)
(-0.0272116 -0.00741588 0)
(-0.0257914 -0.00753957 0)
(-0.0243494 -0.00762467 0)
(-0.0228925 -0.00767006 0)
(-0.0214281 -0.00767489 0)
(-0.0199636 -0.00763861 0)
(-0.0185063 -0.00756096 0)
(-0.0170639 -0.00744203 0)
(-0.0156437 -0.00728222 0)
(-0.014253 -0.00708227 0)
(-0.012899 -0.0068433 0)
(-0.0115886 -0.00656682 0)
(-0.0103282 -0.00625471 0)
(-0.00912425 -0.0059093 0)
(-0.00798234 -0.00553332 0)
(-0.00690773 -0.00512994 0)
(-0.00590499 -0.00470284 0)
(-0.00497807 -0.00425619 0)
(-0.00413014 -0.00379475 0)
(-0.00336358 -0.00332391 0)
(-0.0026799 -0.00284977 0)
(-0.00207963 -0.00237922 0)
(-0.00156228 -0.00192008 0)
(-0.00112634 -0.00148123 0)
(-0.000769207 -0.00107282 0)
(-0.000487192 -0.000706501 0)
(-0.000275413 -0.000395702 0)
(-0.000127797 -0.000155901 0)
(-3.85575e-05 -4.47268e-06 0)
(-3.91646e-06 4.07647e-05 0)
(-1.66368e-05 2.74412e-05 0)
(-0.000112428 0.000378805 0)
(-0.000318855 0.000892119 0)
(-0.000623669 0.00144152 0)
(-0.00102457 0.00200188 0)
(-0.00152036 0.00256486 0)
(-0.00210915 0.00312183 0)
(-0.00278748 0.00366556 0)
(-0.00355149 0.00418962 0)
(-0.00439664 0.00468914 0)
(-0.005318 0.00515999 0)
(-0.0063105 0.00559928 0)
(-0.00736864 0.00600473 0)
(-0.00848698 0.00637513 0)
(-0.00965987 0.00670954 0)
(-0.0108816 0.00700775 0)
(-0.0121465 0.00726989 0)
(-0.0134491 0.00749641 0)
(-0.0147838 0.00768792 0)
(-0.0161451 0.00784529 0)
(-0.0175276 0.00796948 0)
(-0.0189261 0.00806146 0)
(-0.0203356 0.00812224 0)
(-0.021751 0.00815284 0)
(-0.0231675 0.00815426 0)
(-0.0245803 0.00812742 0)
(-0.0259847 0.00807318 0)
(-0.0273764 0.00799234 0)
(-0.0287509 0.00788563 0)
(-0.0301038 0.00775375 0)
(-0.031431 0.00759725 0)
(-0.0327283 0.00741665 0)
(-0.0339916 0.00721244 0)
(-0.0352171 0.00698506 0)
(-0.0364007 0.00673491 0)
(-0.0375386 0.00646237 0)
(-0.0386271 0.00616778 0)
(-0.0396624 0.00585153 0)
(-0.0406411 0.00551407 0)
(-0.0415593 0.00515582 0)
(-0.0424139 0.00477729 0)
(-0.0432014 0.00437902 0)
(-0.0439185 0.00396165 0)
(-0.0445623 0.00352596 0)
(-0.0451297 0.00307282 0)
(-0.045618 0.00260318 0)
(-0.0460244 0.00211814 0)
(-0.0463467 0.00161894 0)
(-0.0465827 0.00110697 0)
(-0.0467303 0.000583805 0)
(-0.046788 5.11345e-05 0)
(-0.0467544 -0.000489202 0)
(-0.0466285 -0.00103521 0)
(-0.0464094 -0.00158473 0)
(-0.0460969 -0.00213545 0)
(-0.0456911 -0.00268491 0)
(-0.0451922 -0.00323056 0)
(-0.0446013 -0.00376972 0)
(-0.0439197 -0.00429961 0)
(-0.0431491 -0.00481737 0)
(-0.0422918 -0.00532005 0)
(-0.0413504 -0.00580468 0)