/*--------------------------------*- C++ -*----------------------------------*\
| =========                 |                                                 |
| \\      /  F ield         | OpenFOAM: The Open Source CFD Toolbox           |
|  \\    /   O peration     | Version:  2512                                  |
|   \\  /    A nd           | Website:  www.openfoam.com                      |
|    \\/     M anipulation  |                                                 |
\*---------------------------------------------------------------------------*/
FoamFile
{
    version     2.0;
    format      ascii;
    arch        "LSB;label=32;scalar=64";
    class       volScalarField;
    location    "0.5";
    object      p;
}
// * * * * * * * * * * * * * * * * * * * * * * * * * * * * * * * * * * * * * //

dimensions      [0 2 -2 0 0 0 0];

internalField   nonuniform List<scalar> 
10000
(
2.0929e-08
6.06162e-06
-2.12059e-05
-8.41763e-05
-0.000176528
-0.000291555
-0.000422962
-0.000565083
-0.000713049
-0.000862727
-0.00101069
-0.00115408
-0.00129056
-0.00141823
-0.00153555
-0.00164127
-0.00173441
-0.00181421
-0.00188007
-0.00193155
-0.00196829
-0.00199007
-0.00199672
-0.00198813
-0.00196425
-0.00192504
-0.00187052
-0.0018007
-0.00171566
-0.00161545
-0.00150017
-0.00136992
-0.00122481
-0.00106502
-0.000890726
-0.000702161
-0.000499576
-0.000283274
-5.36167e-05
0.000188976
0.000444022
0.000710974
0.000989227
0.00127809
0.0015768
0.00188449
0.00220023
0.00252299
0.00285167
0.00318506
0.0035219
0.00386085
0.00420048
0.00453931
0.0048758
0.00520838
0.0055354
0.00585524
0.00616623
0.0064667
0.00675504
0.00702964
0.00728895
0.0075315
0.00775588
0.00796081
0.00814509
0.00830768
0.00844769
0.00856437
0.00865717
0.00872572
0.00876987
0.00878963
0.00878527
0.00875726
0.00870627
0.00863322
0.00853923
0.00842565
0.00829403
0.00814612
0.00798391
0.00780955
0.0076254
0.00743399
0.00723804
0.00704045
0.00684426
0.00665272
0.00646919
0.00629722
0.00614049
0.00600277
0.00588783
0.00579926
0.00573992
0.0057113
0.00571251
0.00573389
-3.54161e-06
2.50353e-06
-2.28454e-05
-7.7852e-05
-0.000156695
-0.000254682
-0.000367146
-0.000489568
-0.000617875
-0.000748494
-0.000878342
-0.0010048
-0.00112565
-0.00123908
-0.00134354
-0.0014378
-0.00152084
-0.00159186
-0.00165022
-0.0016954
-0.00172701
-0.00174475
-0.00174843
-0.00173787
-0.00171298
-0.0016737
-0.00161999
-0.00155187
-0.00146936
-0.00137253
-0.00126143
-0.00113616
-0.00099685
-0.000843649
-0.000676747
-0.000496362
-0.00030275
-9.62093e-05
0.000122902
0.000354168
0.000597117
0.000851216
0.00111588
0.00139044
0.00167415
0.0019662
0.00226569
0.00257164
0.00288299
0.00319861
0.00351731
0.00383781
0.00415878
0.00447884
0.00479652
0.00511037
0.00541884
0.00572042
0.00601356
0.00629672
0.00656839
0.00682708
0.00707138
0.00729991
0.0075114
0.00770466
0.00787861
0.0080323
0.0081649
0.00827578
0.00836444
0.00843057
0.00847404
0.00849492
0.00849348
0.00847018
0.0084257
0.0083609
0.00827687
0.00817489
0.00805642
0.00792313
0.00777688
0.00761968
0.00745375
0.00728145
0.00710528
0.00692793
0.00675219
0.00658097
0.00641731
0.00626433
0.00612517
0.00600297
0.00590075
0.00582119
0.00576617
0.00573658
0.0057338
0.00575523
2.74018e-05
3.07837e-05
4.88347e-06
-4.66939e-05
-0.00011831
-0.000206283
-0.000306868
-0.000416322
-0.000531192
-0.000648375
-0.000765132
-0.000879085
-0.000988196
-0.00109073
-0.00118524
-0.00127052
-0.00134556
-0.00140956
-0.00146186
-0.00150192
-0.00152933
-0.00154377
-0.00154501
-0.00153284
-0.00150713
-0.00146781
-0.00141483
-0.00134818
-0.00126786
-0.00117392
-0.0010664
-0.000945402
-0.000811034
-0.000663448
-0.000502825
-0.000329374
-0.000143343
5.49753e-05
0.000265229
0.00048701
0.000719863
0.000963274
0.00121667
0.00147942
0.0017508
0.00203003
0.00231624
0.00260849
0.00290578
0.00320703
0.00351109
0.00381677
0.00412278
0.00442783
0.00473052
0.00502947
0.00532324
0.00561037
0.00588942
0.00615893
0.00641748
0.00666369
0.0068962
0.00711376
0.00731516
0.00749929
0.00766514
0.00781184
0.00793863
0.00804492
0.00813027
0.0081944
0.00823722
0.00825881
0.00825945
0.00823961
0.00819993
0.00814127
0.00806466
0.00797132
0.00786267
0.00774028
0.00760592
0.0074615
0.0073091
0.00715093
0.00698935
0.00682683
0.00666596
0.00650941
0.00635991
0.00622027
0.00609326
0.00598159
0.00588782
0.00581425
0.00576244
0.00573343
0.00573089
0.00575663
9.41329e-05
8.8757e-05
5.83315e-05
6.15311e-06
-6.3111e-05
-0.000146223
-0.000240028
-0.000341372
-0.000447302
-0.000555118
-0.000662413
-0.000767066
-0.000867224
-0.000961294
-0.00104792
-0.00112598
-0.00119451
-0.00125274
-0.0013
-0.00133578
-0.00135966
-0.00137132
-0.00137049
-0.00135697
-0.00133062
-0.00129133
-0.00123906
-0.00117378
-0.00109547
-0.00100416
-0.000899905
-0.000782769
-0.000652862
-0.000510325
-0.000355331
-0.000188076
-8.79614e-06
0.000182225
0.000384646
0.000598074
0.000822069
0.00105614
0.00129974
0.00155226
0.001813
0.00208121
0.00235605
0.00263663
0.00292199
0.00321108
0.00350282
0.00379606
0.00408959
0.00438213
0.00467239
0.00495902
0.00524065
0.00551591
0.0057834
0.00604175
0.0062896
0.00652564
0.00674858
0.00695723
0.00715043
0.00732715
0.00748643
0.00762745
0.00774949
0.00785201
0.00793459
0.00799699
0.00803913
0.00806111
0.00806322
0.0080459
0.0080098
0.00795574
0.00788472
0.00779792
0.00769669
0.00758254
0.00745716
0.00732237
0.00718013
0.00703253
0.00688179
0.00673021
0.00658021
0.00643423
0.00629481
0.00616447
0.0060457
0.00594095
0.00585253
0.00578254
0.00573253
0.00570385
0.00570137
0.00572873
0.000190208
0.000170601
0.000131892
7.60627e-05
6.09737e-06
-7.52193e-05
-0.00016519
-0.000261182
-0.000360698
-0.000461425
-0.000561273
-0.000658382
-0.000751103
-0.000838002
-0.000917852
-0.000989615
-0.00105241
-0.00110549
-0.00114825
-0.00118018
-0.00120087
-0.00121001
-0.00120734
-0.00119264
-0.00116577
-0.00112662
-0.00107512
-0.00101124
-0.000934949
-0.000846265
-0.000745225
-0.000631893
-0.000506362
-0.000368763
-0.000219251
-5.8013e-05
0.000114731
0.00029871
0.000493595
0.000699017
0.000914555
0.00113974
0.00137405
0.0016169
0.00186762
0.0021255
0.00238973
0.00265944
0.00293373
0.00321159
0.00349199
0.00377382
0.00405591
0.00433707
0.00461602
0.0048915
0.00516218
0.00542674
0.00568385
0.00593221
0.0061705
0.00639746
0.00661187
0.00681259
0.00699851
0.00716864
0.00732208
0.00745803
0.00757582
0.00767493
0.00775498
0.00781575
0.00785716
0.00787933
0.00788253
0.00786722
0.00783402
0.00778371
0.00771729
0.00763587
0.00754076
0.00743341
0.00731543
0.00718855
0.00705463
0.00691565
0.00677369
0.00663092
0.00648956
0.0063519
0.00622026
0.00609692
0.00598418
0.00588424
0.00579921
0.00573106
0.00568134
0.00565154
0.00564674
0.0056709
0.0003096
0.00027198
0.00022206
0.00015997
8.66749e-05
4.52857e-06
-8.41547e-05
-0.00017721
-0.000272563
-0.000368266
-0.000462535
-0.000553755
-0.000640495
-0.000721497
-0.000795675
-0.000862094
-0.000919949
-0.000968562
-0.00100737
-0.00103592
-0.00105383
-0.00106077
-0.00105651
-0.00104083
-0.00101359
-0.000974692
-0.000924055
-0.000861624
-0.000787371
-0.000701299
-0.000603438
-0.00049384
-0.000372588
-0.000239795
-9.55989e-05
5.98292e-05
0.000226281
0.000403503
0.000591186
0.000788981
0.000996493
0.00121328
0.00143884
0.00167263
0.001914
0.00216226
0.00241665
0.00267634
0.00294044
0.00320803
0.00347808
0.00374955
0.00402131
0.00429219
0.004561
0.00482649
0.0050874
0.00534246
0.00559038
0.0058299
0.00605976
0.00627875
0.00648568
0.00667945
0.006859
0.00702338
0.00717169
0.0073032
0.00741725
0.00751335
0.00759112
0.00765036
0.00769102
0.00771319
0.00771716
0.00770336
0.00767241
0.00762507
0.00756228
0.00748515
0.00739491
0.00729298
0.00718087
0.00706026
0.0069329
0.00680067
0.00666554
0.00652953
0.00639472
0.00626324
0.00613722
0.00601876
0.00590996
0.00581282
0.0057293
0.00566121
0.00561007
0.00557742
0.0055678
0.00558465
0.000446596
0.00038861
0.000325294
0.000254831
0.000176001
9.07849e-05
1.17081e-06
-9.109e-05
-0.000184312
-0.000276884
-0.000367306
-0.00045421
-0.000536378
-0.000612733
-0.000682336
-0.000744362
-0.000798102
-0.000842957
-0.000878435
-0.000904117
-0.000919655
-0.000924759
-0.000919193
-0.000902773
-0.00087536
-0.000836853
-0.000787172
-0.000726252
-0.00065406
-0.000570591
-0.000475866
-0.000369927
-0.00025284
-0.000124701
1.43699e-05
0.000164219
0.000324652
0.000495436
0.000676284
0.000866871
0.00106683
0.00127575
0.00149315
0.00171852
0.00195124
0.00219065
0.00243601
0.00268655
0.00294142
0.00319971
0.00346046
0.00372265
0.00398519
0.00424697
0.00450681
0.00476352
0.00501587
0.00526263
0.00550257
0.00573444
0.00595704
0.00616917
0.00636969
0.00655752
0.00673163
0.00689109
0.00703505
0.00716276
0.0072736
0.00736709
0.00744287
0.00750073
0.00754062
0.00756265
0.00756709
0.00755436
0.00752505
0.00747991
0.00741985
0.00734594
0.00725938
0.00716152
0.00705382
0.00693788
0.00681537
0.0066881
0.00655789
0.00642668
0.00629642
0.00616907
0.0060466
0.00593099
0.00582413
0.00572788
0.00564402
0.00557424
0.00552
0.00548277
0.00546615
0.00547261
0.00059595
0.000516232
0.000438017
0.000357558
0.000271455
0.000181366
8.90072e-05
-4.2514e-06
-9.70674e-05
-0.000188132
-0.000276217
-0.000360197
-0.000439063
-0.000511913
-0.000577951
-0.000636476
-0.000686888
-0.000728676
-0.000761416
-0.000784743
-0.000798347
-0.000801972
-0.000795414
-0.000778508
-0.000751128
-0.000713175
-0.000664566
-0.000605237
-0.000535149
-0.000454294
-0.000362681
-0.000260341
-0.000147322
-2.37005e-05
0.000110419
0.000254901
0.00040957
0.000574215
0.000748574
0.000932352
0.00112521
0.00132676
0.00153656
0.00175412
0.00197885
0.00221013
0.00244725
0.00268947
0.00293599
0.00318592
0.00343835
0.00369228
0.00394667
0.00420043
0.00445242
0.00470148
0.00494642
0.00518605
0.00541914
0.0056445
0.00586092
0.00606726
0.00626239
0.00644524
0.00661481
0.00677017
0.00691049
0.00703504
0.0071432
0.0072345
0.00730858
0.00736522
0.00740439
0.00742617
0.00743083
0.00741878
0.00739058
0.00734697
0.00728883
0.00721719
0.00713322
0.00703821
0.00693358
0.00682086
0.00670166
0.00657769
0.0064507
0.0063225
0.00619494
0.00606985
0.00594909
0.00583446
0.00572774
0.00563062
0.00554474
0.00547164
0.00541271
0.00536935
0.00534394
0.00533779
0.00075304
0.0006509
0.000556813
0.000465172
0.000370465
0.000274083
0.00017751
8.17829e-05
-1.20655e-05
-0.000103002
-0.000190058
-0.000272339
-0.000349031
-0.000419402
-0.000482799
-0.000538654
-0.000586479
-0.000625857
-0.000656435
-0.000677908
-0.000690009
-0.000692527
-0.000685297
-0.000668176
-0.00064105
-0.000603826
-0.000556427
-0.000498786
-0.000430866
-0.000352653
-0.000264149
-0.000165366
-5.63345e-05
6.28873e-05
0.000192211
0.000331518
0.000480657
0.00063944
0.000807636
0.000984976
0.00117115
0.00136581
0.00156854
0.00177886
0.00199623
0.00222006
0.00244967
0.00268437
0.00292336
0.00316582
0.00341086
0.0036575
0.00390474
0.00415151
0.00439672
0.00463921
0.00487783
0.0051114
0.00533873
0.00555865
0.00576996
0.00597152
0.00616223
0.00634103
0.00650692
0.00665897
0.00679637
0.00691839
0.00702441
0.00711394
0.00718662
0.00724226
0.00728077
0.00730225
0.00730695
0.00729526
0.00726772
0.00722506
0.00716812
0.00709791
0.00701555
0.0069223
0.00681954
0.00670873
0.00659143
0.00646926
0.00634392
0.00621711
0.00609058
0.00596608
0.00584532
0.00573
0.00562176
0.00552217
0.00543274
0.00535485
0.00528983
0.00523898
0.00520339
0.00518313
0.000913802
0.000789024
0.000678491
0.000574847
0.00047054
0.000366757
0.000264798
0.000165407
6.93314e-05
-2.26495e-05
-0.000109804
-0.000191453
-0.000266966
-0.000335774
-0.000397375
-0.000451331
-0.000497267
-0.000534859
-0.000563826
-0.000583928
-0.000594956
-0.000596749
-0.000589174
-0.000572116
-0.000545477
-0.000509174
-0.000463135
-0.0004073
-0.00034163
-0.000266107
-0.000180721
-8.54673e-05
1.96406e-05
0.000134561
0.000259224
0.000393531
0.000537355
0.000690536
0.000852872
0.00102413
0.00120402
0.00139223
0.00158838
0.00179201
0.00200262
0.00221965
0.00244246
0.00267037
0.00290264
0.00313847
0.00337699
0.00361727
0.00385832
0.00409909
0.00433851
0.00457547
0.00480881
0.00503738
0.00526
0.0054755
0.00568271
0.0058805
0.00606774
0.00624339
0.00640644
0.00655598
0.00669117
0.00681129
0.0069157
0.00700391
0.00707556
0.00713041
0.00716839
0.00718958
0.00719419
0.00718261
0.00715537
0.00711315
0.00705679
0.00698726
0.00690564
0.00681318
0.00671119
0.0066011
0.00648442
0.0063627
0.00623758
0.00611068
0.00598367
0.0058582
0.0057359
0.00561836
0.00550711
0.00540361
0.00530923
0.00522525
0.00515292
0.00509346
0.00504663
0.00501128
0.00107473
0.000927367
0.000800106
0.000683912
0.000569285
0.00045726
0.000349
0.000244982
0.000145697
5.16861e-05
-3.65317e-05
-0.000118468
-0.000193671
-0.000261735
-0.000322305
-0.000375071
-0.000419765
-0.000456153
-0.000484037
-0.000503239
-0.000513619
-0.000515064
-0.000507477
-0.000490768
-0.000464858
-0.000429679
-0.000385167
-0.000331271
-0.000267951
-0.000195182
-0.00011294
-2.12053e-05
8.00241e-05
0.000190724
0.000310842
0.000440304
0.000579008
0.000726825
0.000883585
0.00104908
0.00122307
0.00140526
0.00159529
0.00179275
0.00199716
0.002208
0.00242466
0.0026465
0.00287281
0.00310281
0.00333566
0.00357046
0.00380622
0.00404194
0.00427655
0.00450896
0.00473802
0.0049626
0.00518153
0.00539362
0.00559772
0.00579268
0.00597739
0.00615078
0.00631185
0.00645966
0.00659337
0.00671223
0.0068156
0.00690297
0.00697395
0.0070283
0.00706592
0.00708687
0.00709134
0.0070797
0.00705246
0.00701028
0.00695396
0.00688446
0.00680283
0.00671028
0.00660809
0.00649765
0.00638042
0.00625793
0.00613172
0.00600338
0.00587451
0.00574667
0.00562142
0.00550026
0.00538464
0.00527591
0.00517535
0.00508411
0.00500341
0.00493442
0.00487556
0.00482453
0.00123271
0.00106301
0.000918927
0.000789851
0.000664411
0.000543528
0.000428263
0.000318853
0.000215555
0.000118699
2.86121e-05
-5.43988e-05
-0.000130051
-0.000198099
-0.000258325
-0.000310543
-0.00035459
-0.000390319
-0.000417614
-0.000436376
-0.000446524
-0.000447994
-0.000440724
-0.000424654
-0.000399724
-0.000365883
-0.000323082
-0.000271274
-0.000210419
-0.000140483
-6.14282e-05
2.67787e-05
0.000124156
0.000230693
0.000346361
0.00047111
0.000604869
0.000747538
0.00089898
0.00105902
0.00122745
0.001404
0.00158835
0.00178012
0.00197887
0.0021841
0.00239524
0.00261169
0.00283275
0.00305769
0.00328567
0.00351582
0.00374718
0.00397875
0.00420948
0.00443829
0.00466405
0.00488562
0.00510183
0.00531149
0.00551345
0.00570654
0.00588964
0.00606166
0.00622159
0.00636846
0.00650142
0.0066197
0.00672262
0.00680966
0.0068804
0.00693458
0.00697207
0.0069929
0.00699725
0.00698545
0.006958
0.00691552
0.00685881
0.00678878
0.00670648
0.00661306
0.00650981
0.00639806
0.00627925
0.00615485
0.00602638
0.00589538
0.00576337
0.00563188
0.00550239
0.00537634
0.00525511
0.00513997
0.00503211
0.00493258
0.00484262
0.00476333
0.00469188
0.00462481
0.00138497
0.00119328
0.00103244
0.000890308
0.000753743
0.000623569
0.000500767
0.00038536
0.000277404
0.00017704
8.44139e-05
-3.40424e-07
-7.71028e-05
-0.000145774
-0.00020627
-0.000258518
-0.000302456
-0.000338033
-0.000365213
-0.000383974
-0.000394293
-0.000396151
-0.000389526
-0.000374386
-0.000350695
-0.00031842
-0.000277524
-0.000227968
-0.000169708
-0.000102698
-2.68914e-05
5.77581e-05
0.000151284
0.000253696
0.000364988
0.000485136
0.000614097
0.000751809
0.000898168
0.00105303
0.00121622
0.00138749
0.00156656
0.0017531
0.00194668
0.00214684
0.00235306
0.00256474
0.00278125
0.00300183
0.00322572
0.00345202
0.00367981
0.0039081
0.00413585
0.00436199
0.00458538
0.0048049
0.00501935
0.00522755
0.00542832
0.00562048
0.00580289
0.00597443
0.00613407
0.00628082
0.00641379
0.00653217
0.00663529
0.00672255
0.00679352
0.00684791
0.00688556
0.00690646
0.00691077
0.0068988
0.006871
0.006828
0.00677054
0.00669953
0.00661598
0.00652104
0.00641596
0.00630205
0.00618071
0.0060534
0.0059216
0.0057868
0.00565051
0.00551419
0.00537929
0.00524719
0.00511921
0.00499658
0.00488042
0.00477171
0.0046717
0.00458148
0.004497
0.0044137
0.00152902
0.00131576
0.00113831
0.00098308
0.000835206
0.000695446
0.000564717
0.000442857
0.000329741
0.000225335
0.000129614
4.25492e-05
-3.58924e-05
-0.000105746
-0.000167052
-0.000219848
-0.000264171
-0.000300064
-0.000327578
-0.000346757
-0.000357632
-0.000360234
-0.000354578
-0.000340661
-0.000318471
-0.000287999
-0.00024922
-0.000202092
-0.000146568
-8.25975e-05
-1.01212e-05
7.09211e-05
0.000160578
0.000258879
0.000365841
0.000481472
0.000605763
0.000738683
0.00088016
0.00103009
0.00118831
0.00135464
0.00152881
0.00171051
0.00189939
0.00209499
0.00229684
0.00250437
0.00271695
0.00293388
0.00315438
0.00337761
0.00360263
0.00382848
0.00405412
0.00427848
0.00450043
0.00471881
0.00493245
0.00514014
0.00534067
0.00553284
0.00571548
0.00588745
0.00604767
0.00619513
0.0063289
0.00644813
0.0065521
0.00664019
0.00671192
0.00676697
0.00680513
0.00682637
0.00683081
0.00681872
0.00679053
0.00674684
0.00668838
0.00661602
0.00653077
0.00643373
0.00632615
0.00620932
0.00608463
0.0059535
0.00581739
0.00567778
0.00553614
0.00539392
0.00525253
0.00511331
0.00497756
0.00484646
0.00472109
0.00460239
0.00449163
0.00438994
0.0042921
0.00419246
0.00166258
0.00142821
0.00123438
0.00106609
0.000906824
0.000757293
0.000618368
0.000489724
0.000371062
0.000262187
0.000162913
7.30602e-05
-7.54484e-06
-7.90642e-05
-0.000141653
-0.000195457
-0.000240618
-0.000277267
-0.000305532
-0.000325523
-0.000337328
-0.00034102
-0.000336651
-0.000324251
-0.000303838
-0.000275415
-0.000238967
-0.000194457
-0.000141831
-8.10293e-05
-1.19829e-05
6.53782e-05
0.000151121
0.000245298
0.000347955
0.00045913
0.000578846
0.000707105
0.000843872
0.000989072
0.00114259
0.00130425
0.00147385
0.00165112
0.00183571
0.00202723
0.00222522
0.00242915
0.00263841
0.00285233
0.00307015
0.00329102
0.00351405
0.00373826
0.00396263
0.00418608
0.00440748
0.00462566
0.00483942
0.00504753
0.00524877
0.00544189
0.0056257
0.00579901
0.00596071
0.00610975
0.00624514
0.00636599
0.00647154
0.00656112
0.0066342
0.00669042
0.00672952
0.00675143
0.00675624
0.00674418
0.00671565
0.00667122
0.00661159
0.00653761
0.00645027
0.00635067
0.00624002
0.00611962
0.00599082
0.00585506
0.00571377
0.00556842
0.00542047
0.00527136
0.00512248
0.00497517
0.00483068
0.00469021
0.0045548
0.00442536
0.00430323
0.0041896
0.0040781
0.00396207
0.00178354
0.00152855
0.00131862
0.00113737
0.000966706
0.000807312
0.000660024
0.000524362
0.000399865
0.000286182
0.000182982
8.99462e-05
6.77114e-06
-6.68258e-05
-0.000131114
-0.000186344
-0.000232754
-0.000270564
-0.000299974
-0.000321152
-0.00033424
-0.000339359
-0.000336595
-0.00032601
-0.000307649
-0.000281531
-0.000247646
-0.000205953
-0.000156399
-9.89161e-05
-3.34269e-05
4.01547e-05
0.000121915
0.000211931
0.000310278
0.000417024
0.00053223
0.000655931
0.000788125
0.00092877
0.00107779
0.00123505
0.00140037
0.00157353
0.00175423
0.00194209
0.0021367
0.00233755
0.00254406
0.00275558
0.00297136
0.00319058
0.00341235
0.00363571
0.00385962
0.00408301
0.00430473
0.00452361
0.00473841
0.00494789
0.00515079
0.00534582
0.00553174
0.00570734
0.00587145
0.00602296
0.00616084
0.00628414
0.00639205
0.00648384
0.00655893
0.0066169
0.00665745
0.00668046
0.00668596
0.00667417
0.00664543
0.00660029
0.00653942
0.00646365
0.00637395
0.0062714
0.00615721
0.00603266
0.00589912
0.00575799
0.00561073
0.0054588
0.00530366
0.00514675
0.00498946
0.00483314
0.00467904
0.00452835
0.00438212
0.00424126
0.00410718
0.00398116
0.00385573
0.00372325
0.00188997
0.00161482
0.00138908
0.00119503
0.00101305
0.000843777
0.000688038
0.000545201
0.000414652
0.0002959
0.000188479
9.19389e-05
5.8535e-06
-7.01759e-05
-0.000136527
-0.000193561
-0.000241601
-0.000280945
-0.000311861
-0.000334581
-0.000349298
-0.000356169
-0.000355324
-0.000346858
-0.000330834
-0.000307282
-0.000276196
-0.000237538
-0.000191251
-0.00013726
-7.5477e-05
-5.79787e-06
7.18837e-05
0.000157671
0.000251672
0.000353989
0.000464715
0.00058392
0.000711637
0.000847861
0.000992551
0.00114562
0.00130693
0.00147628
0.00165342
0.00183801
0.00202967
0.00222791
0.0024322
0.00264188
0.00285624
0.00307447
0.00329569
0.00351894
0.00374318
0.00396733
0.00419024
0.00441071
0.00462748
0.00483927
0.00504478
0.00524269
0.00543171
0.00561057
0.00577805
0.00593297
0.00607425
0.0062009
0.006312
0.00640679
0.00648463
0.00654502
0.00658761
0.00661222
0.00661885
0.00660765
0.00657893
0.00653321
0.00647112
0.00639348
0.00630123
0.00619546
0.00607734
0.00594818
0.00580932
0.00566219
0.00550825
0.00534897
0.00518583
0.00502029
0.00485374
0.00468755
0.004523
0.00436131
0.00420353
0.00405058
0.00390401
0.00376516
0.00362552
0.00347648
0.00198002
0.0016852
0.00144397
0.00123732
0.00104413
0.000865025
0.000700801
0.000550693
0.000413943
0.000289931
0.000178057
7.77538e-05
-1.15223e-05
-9.02919e-05
-0.000159038
-0.00021821
-0.000268221
-0.000309444
-0.000342212
-0.000366811
-0.000383483
-0.000392432
-0.000393825
-0.000387782
-0.000374382
-0.000353664
-0.000325629
-0.000290241
-0.000247436
-0.000197133
-0.00013923
-7.36061e-05
-1.30542e-07
8.13311e-05
0.000170918
0.000268767
0.000375004
0.000489735
0.00061303
0.000744925
0.000885417
0.00103446
0.00119195
0.00135775
0.00153162
0.00171329
0.00190238
0.00209846
0.00230099
0.00250936
0.00272288
0.00294074
0.00316208
0.00338594
0.00361128
0.003837
0.00406195
0.0042849
0.00450455
0.0047196
0.00492869
0.00513046
0.00532358
0.0055067
0.00567855
0.00583789
0.00598356
0.00611449
0.00622971
0.00632837
0.00640976
0.00647332
0.00651864
0.00654546
0.00655373
0.00654355
0.00651519
0.00646911
0.00640594
0.00632645
0.00623157
0.00612238
0.00600005
0.00586588
0.00572124
0.00556755
0.00540629
0.00523898
0.0050671
0.00489213
0.00471552
0.00453867
0.00436289
0.00418944
0.00401939
0.00385373
0.0036941
0.00354199
0.00338784
0.00322206
0.00205195
0.00173794
0.00148155
0.00126253
0.00105828
0.000869433
0.000696745
0.000539324
0.000396279
0.00026687
0.000150376
4.61026e-05
-4.66101e-05
-0.000128387
-0.000199814
-0.000261429
-0.000313726
-0.000357147
-0.000392086
-0.000418887
-0.000437838
-0.000449189
-0.000453136
-0.000449821
-0.000439339
-0.000421737
-0.000397022
-0.000365156
-0.000326071
-0.000279678
-0.000225859
-0.000164473
-9.53606e-05
-1.83561e-05
6.67118e-05
0.000160013
0.000261709
0.000371944
0.000490827
0.000618436
0.000754808
0.000899941
0.00105378
0.00121622
0.00138708
0.00156611
0.00175297
0.00194725
0.00214847
0.00235601
0.00256922
0.0027873
0.00300939
0.00323454
0.00346172
0.00368981
0.00391763
0.00414393
0.00436738
0.00458664
0.0048003
0.00500696
0.0052052
0.00539363
0.00557091
0.00573571
0.0058868
0.00602304
0.00614337
0.00624685
0.00633271
0.00640029
0.00644911
0.00647886
0.00648939
0.00648077
0.0064532
0.00640711
0.00634308
0.00626187
0.00616438
0.00605168
0.00592494
0.00578547
0.00563465
0.00547392
0.0053048
0.00512882
0.00494752
0.00476241
0.00457499
0.00438671
0.00419895
0.00401299
0.00382999
0.00365098
0.00347774
0.00331191
0.00314288
0.00296012
0.00210411
0.00177138
0.00150019
0.00126903
0.00105392
0.000855435
0.000674337
0.000509607
0.00036023
0.000225336
0.00010409
-4.32231e-06
-0.000100675
-0.000185693
-0.000260056
-0.000324388
-0.000379256
-0.000425171
-0.000462588
-0.000491903
-0.000513455
-0.000527529
-0.000534346
-0.00053407
-0.000526808
-0.000512618
-0.000491507
-0.000463438
-0.000428339
-0.000386107
-0.000336606
-0.00027967
-0.000215112
-0.000142735
-6.23347e-05
2.62947e-05
0.000123353
0.000229022
0.000343452
0.000466765
0.000599045
0.000740334
0.000890628
0.00104986
0.00121789
0.00139451
0.00157942
0.00177224
0.00197251
0.00217967
0.00239305
0.00261189
0.00283534
0.00306244
0.00329216
0.00352338
0.00375489
0.00398541
0.00421358
0.00443801
0.00465725
0.00486983
0.00507427
0.0052691
0.00545291
0.00562428
0.00578192
0.00592456
0.00605107
0.00616043
0.00625175
0.00632431
0.00637753
0.00641101
0.00642455
0.00641813
0.00639192
0.00634627
0.00628173
0.00619903
0.00609906
0.00598286
0.00585162
0.00570664
0.00554934
0.00538117
0.0052037
0.0050185
0.00482714
0.00463122
0.00443229
0.00423186
0.00403137
0.0038322
0.00363555
0.00344254
0.0032551
0.00307505
0.00289073
0.00269064
0.00213491
0.00178394
0.0014983
0.00125527
0.00102947
0.000821507
0.000632095
0.000460101
0.000304385
0.000163957
3.78607e-05
-7.48307e-05
-0.000174995
-0.000263456
-0.00034098
-0.000408276
-0.00046598
-0.00051467
-0.000554861
-0.000587
-0.000611469
-0.000628584
-0.000638591
-0.000641671
-0.000637945
-0.000627476
-0.000610276
-0.000586305
-0.000555483
-0.000517692
-0.000472774
-0.000420537
-0.000360765
-0.000293228
-0.000217688
-0.000133901
-4.16301e-05
5.93492e-05
0.000169231
0.000288183
0.000416339
0.00055379
0.000700579
0.000856685
0.00102201
0.00119639
0.00137957
0.00157121
0.00177086
0.001978
0.002192
0.00241209
0.00263745
0.00286713
0.00310008
0.00333517
0.00357117
0.00380678
0.00404059
0.00427117
0.004497
0.00471657
0.00492831
0.00513069
0.00532218
0.00550132
0.00566667
0.00581691
0.00595078
0.00606716
0.00616506
0.00624365
0.00630228
0.00634044
0.00635785
0.00635441
0.00633023
0.00628559
0.00622102
0.00613718
0.00603496
0.00591539
0.00577965
0.00562906
0.00546505
0.00528914
0.0051029
0.00490797
0.004706
0.00449865
0.00428753
0.00407423
0.00386031
0.0036472
0.00343621
0.00322853
0.00302629
0.00283147
0.00263136
0.0024135
0.00214283
0.00177408
0.00147434
0.0012197
0.000983462
0.000766181
0.000568579
0.000389395
0.000227361
8.13708e-05
-4.96476e-05
-0.000166727
-0.000270846
-0.000362924
-0.000443813
-0.000514297
-0.000575087
-0.000626824
-0.000670078
-0.000705347
-0.000733048
-0.000753524
-0.000767045
-0.000773809
-0.000773948
-0.000767532
-0.000754574
-0.000735028
-0.000708805
-0.000675766
-0.000635732
-0.000588481
-0.000533768
-0.000471331
-0.000400893
-0.000322173
-0.000234894
-0.000138787
-3.36092e-05
8.08569e-05
0.000204795
0.000338349
0.000481612
0.00063461
0.000797297
0.000969547
0.00115115
0.0013418
0.0015411
0.00174855
0.00196353
0.00218533
0.00241311
0.00264594
0.00288277
0.00312244
0.00336372
0.00360527
0.00384564
0.00408335
0.00431682
0.00454447
0.00476466
0.00497577
0.00517619
0.00536433
0.00553868
0.00569778
0.00584028
0.00596494
0.00607065
0.00615648
0.00622164
0.00626556
0.00628783
0.00628829
0.00626694
0.00622403
0.00616002
0.00607553
0.00597142
0.00584871
0.00570858
0.00555238
0.00538154
0.00519763
0.00500229
0.00479721
0.00458411
0.00436473
0.00414078
0.00391395
0.00368587
0.00345811
0.00323207
0.00300903
0.00279133
0.00258112
0.00236466
0.00212847
0.00212636
0.00174032
0.00142683
0.00116088
0.000914435
0.000688038
0.000482388
0.000296104
0.000127793
-2.37662e-05
-0.000159753
-0.000281305
-0.0003895
-0.000485347
-0.000569785
-0.00064367
-0.000707785
-0.000762834
-0.00080944
-0.00084814
-0.000879386
-0.000903546
-0.000920916
-0.000931706
-0.000936059
-0.00093405
-0.00092569
-0.000910927
-0.000889655
-0.000861715
-0.000826903
-0.00078497
-0.000735637
-0.000678608
-0.000613569
-0.0005402
-0.000458177
-0.000367186
-0.000266932
-0.000157144
-3.75853e-05
9.19419e-05
0.000231583
0.000381418
0.000541449
0.0007116
0.000891704
0.00108151
0.00128064
0.00148865
0.00170495
0.00192884
0.00215951
0.00239602
0.00263732
0.00288227
0.0031296
0.00337792
0.00362576
0.00387159
0.00411377
0.00435062
0.00458045
0.00480154
0.00501217
0.00521066
0.00539536
0.0055647
0.00571721
0.00585152
0.00596639
0.00606077
0.00613375
0.00618463
0.00621292
0.00621832
0.00620078
0.00616045
0.00609773
0.00601321
0.0059077
0.00578221
0.00563792
0.00547619
0.0052985
0.00510645
0.00490174
0.00468614
0.00446144
0.00422949
0.00399211
0.00375107
0.00350814
0.00326501
0.00302317
0.00278406
0.00255018
0.00232393
0.00209046
0.00183524
0.00208407
0.00168121
0.00135436
0.00107739
0.000820994
0.00058569
0.000372147
0.000178867
4.33709e-06
-0.000152775
-0.000293755
-0.000419844
-0.000532217
-0.000631972
-0.000720128
-0.00079762
-0.000865298
-0.000923921
-0.000974161
-0.00101659
-0.0010517
-0.00107988
-0.00110144
-0.00111662
-0.00112556
-0.00112833
-0.00112496
-0.00111536
-0.00109943
-0.00107697
-0.00104776
-0.00101152
-0.000967942
-0.000916686
-0.000857403
-0.000789728
-0.00071329
-0.000627725
-0.000532684
-0.00042784
-0.000312898
-0.000187604
-5.17573e-05
9.47772e-05
0.000252058
0.000420059
0.000598669
0.000787678
0.000986772
0.00119552
0.00141339
0.00163969
0.00187364
0.00211431
0.00236067
0.00261153
0.00286563
0.00312155
0.00337778
0.00363271
0.00388467
0.00413189
0.00437259
0.00460496
0.00482716
0.0050374
0.0052339
0.00541497
0.00557898
0.00572444
0.00584997
0.00595436
0.00603658
0.0060958
0.00613139
0.00614296
0.00613033
0.0060936
0.00603307
0.00594928
0.005843
0.00571522
0.00556713
0.0054001
0.00521562
0.00501537
0.00480111
0.00457468
0.00433799
0.00409297
0.00384156
0.00358567
0.00332719
0.00306794
0.00280955
0.00255358
0.00230278
0.00205974
0.0018085
0.00153345
0.00201457
0.00159536
0.00125554
0.000967861
0.000701778
0.000457782
0.000236513
3.63567e-05
-0.000144315
-0.000306945
-0.000452927
-0.000583605
-0.000700245
-0.000804036
-0.000896077
-0.000977379
-0.00104885
-0.00111131
-0.00116546
-0.00121193
-0.00125122
-0.00128377
-0.00130989
-0.00132983
-0.00134374
-0.00135171
-0.00135373
-0.00134973
-0.00133956
-0.00132301
-0.00129983
-0.00126971
-0.00123231
-0.00118725
-0.00113414
-0.00107257
-0.00100212
-0.000922359
-0.000832896
-0.000733338
-0.000623332
-0.000502563
-0.000370771
-0.00022776
-7.34144e-05
9.23015e-05
0.000269331
0.00045752
0.000656601
0.000866195
0.0010858
0.00131476
0.00155233
0.00179759
0.0020495
0.00230689
0.00256845
0.00283277
0.00309827
0.00336332
0.00362614
0.00388491
0.00413775
0.00438274
0.00461794
0.00484142
0.00505127
0.00524566
0.0054228
0.00558104
0.00571885
0.00583488
0.00592792
0.00599701
0.00604137
0.00606049
0.00605409
0.00602213
0.00596484
0.00588271
0.00577645
0.00564703
0.00549563
0.00532362
0.00513256
0.00492415
0.00470024
0.00446275
0.00421371
0.00395516
0.00368917
0.0034178
0.00314306
0.00286694
0.00259121
0.00231757
0.00204902
0.00178839
0.00151852
0.00122269
0.00191649
0.00148144
0.00112903
0.00083096
0.000555461
0.000302997
7.41834e-05
-0.000132712
-0.000319435
-0.000487537
-0.00063852
-0.000773826
-0.000894818
-0.00100277
-0.00109886
-0.00118417
-0.00125967
-0.00132621
-0.00138457
-0.00143538
-0.0014792
-0.00151647
-0.00154753
-0.00157264
-0.00159195
-0.00160555
-0.00161341
-0.00161545
-0.0016115
-0.00160134