/*--------------------------------*- C++ -*----------------------------------*\
| =========                 |                                                 |
| \\      /  F ield         | OpenFOAM: The Open Source CFD Toolbox           |
|  \\    /   O peration     | Version:  2512                                  |
|   \\  /    A nd           | Website:  www.openfoam.com                      |
|    \\/     M anipulation  |                                                 |
\*---------------------------------------------------------------------------*/
FoamFile
{
    version     2.0;
    format      ascii;
    arch        "LSB;label=32;scalar=64";
    class       volScalarField;
    location    "0.22";
    object      p;
}
// * * * * * * * * * * * * * * * * * * * * * * * * * * * * * * * * * * * * * //

dimensions      [0 2 -2 0 0 0 0];

internalField   nonuniform List<scalar> 
10000
(
7.75161e-09
-7.25639e-06
-4.36749e-05
-0.000104871
-0.000183501
-0.000274779
-0.000374124
-0.000477395
-0.000581121
-0.000682472
-0.000779105
-0.000869056
-0.000950724
-0.00102285
-0.00108443
-0.00113468
-0.00117294
-0.00119876
-0.00121181
-0.00121187
-0.00119878
-0.00117245
-0.00113287
-0.00108008
-0.00101419
-0.000935286
-0.000843495
-0.000738971
-0.000621902
-0.000492493
-0.000350946
-0.00019748
-3.23365e-05
0.000144226
0.000331933
0.000530496
0.000739601
0.000958913
0.00118808
0.00142671
0.00167439
0.00193066
0.00219503
0.002467
0.00274601
0.00303149
0.00332278
0.00361919
0.00391999
0.0042244
0.00453161
0.00484079
0.00515105
0.00546148
0.00577109
0.00607887
0.0063838
0.00668481
0.00698085
0.00727083
0.00755371
0.00782841
0.00809386
0.00834902
0.00859286
0.00882439
0.00904267
0.00924683
0.00943605
0.0096096
0.00976682
0.00990716
0.0100302
0.0101354
0.0102228
0.010292
0.0103432
0.0103763
0.0103918
0.0103901
0.0103716
0.0103371
0.0102875
0.0102237
0.0101471
0.0100589
0.00996062
0.00985408
0.00974115
0.00962396
0.00950488
0.00938653
0.00927184
0.00916404
0.00906672
0.00898378
0.00891923
0.00887699
0.00886053
0.00886701
-5.87544e-06
-1.27143e-05
-4.40941e-05
-9.56722e-05
-0.000161809
-0.000238733
-0.00032288
-0.000410909
-0.000499831
-0.000587103
-0.000670575
-0.000748417
-0.000819102
-0.000881374
-0.000934216
-0.000976802
-0.00100847
-0.00102872
-0.00103717
-0.00103352
-0.00101758
-0.000989242
-0.000948432
-0.000895145
-0.000829422
-0.000751332
-0.00066097
-0.000558469
-0.000443997
-0.000317725
-0.000179824
-3.04935e-05
0.000130035
0.00030151
0.000483668
0.000676229
0.000878888
0.00109132
0.00131318
0.00154409
0.00178365
0.00203138
0.00228683
0.00254948
0.0028188
0.00309424
0.00337515
0.00366087
0.00395067
0.00424381
0.00453951
0.00483696
0.00513534
0.00543374
0.00573125
0.00602688
0.00631966
0.00660859
0.00689265
0.00717085
0.00744218
0.00770564
0.00796023
0.00820496
0.00843888
0.00866107
0.00887065
0.00906681
0.00924881
0.00941598
0.00956771
0.00970353
0.009823
0.00992581
0.0100118
0.0100808
0.0101328
0.0101681
0.0101869
0.0101897
0.0101769
0.0101493
0.0101078
0.0100533
0.00998696
0.00991016
0.00982432
0.00973108
0.00963225
0.00952981
0.00942594
0.00932304
0.00922371
0.00913074
0.00904713
0.00897599
0.00892028
0.00888275
0.00886695
0.00887349
1.1589e-05
3.66313e-06
-2.53218e-05
-7.1711e-05
-0.000130622
-0.00019873
-0.000273101
-0.000350922
-0.000429599
-0.000506863
-0.000580754
-0.000649602
-0.000711993
-0.000766717
-0.000812767
-0.000849329
-0.000875756
-0.000891531
-0.000896239
-0.000889553
-0.00087125
-0.000841204
-0.00079933
-0.000745579
-0.000679947
-0.000602473
-0.00051324
-0.000412371
-0.000300011
-0.000176301
-4.13923e-05
0.000104533
0.000261251
0.000428521
0.000606088
0.000793684
0.00099102
0.00119778
0.00141362
0.00163817
0.00187102
0.00211174
0.00235987
0.0026149
0.00287633
0.00314358
0.00341607
0.00369311
0.00397401
0.00425806
0.00454449
0.00483254
0.00512139
0.00541019
0.00569803
0.005984
0.00626713
0.00654647
0.00682106
0.00708996
0.00735219
0.00760681
0.00785287
0.00808943
0.00831558
0.00853045
0.00873323
0.00892315
0.00909951
0.0092617
0.00940916
0.00954144
0.00965815
0.00975902
0.00984387
0.00991263
0.00996535
0.0100022
0.0100235
0.0100296
0.0100211
0.00999869
0.00996321
0.00991563
0.00985706
0.00978874
0.00971208
0.00962862
0.00954006
0.00944825
0.00935522
0.00926313
0.0091743
0.00909119
0.00901637
0.00895245
0.00890182
0.00886679
0.00885114
0.00885722
5.55399e-05
4.14145e-05
1.05011e-05
-3.46275e-05
-9.03548e-05
-0.000153773
-0.000222305
-0.000293546
-0.000365275
-0.000435478
-0.000502394
-0.000564516
-0.000620554
-0.000669386
-0.000710047
-0.000741756
-0.000763904
-0.000775984
-0.000777566
-0.000768313
-0.000747996
-0.000716476
-0.000673655
-0.000619464
-0.000553874
-0.000476908
-0.000388631
-0.000289152
-0.000178597
-5.70865e-05
7.52464e-05
0.000218229
0.000371645
0.000535262
0.000708841
0.000892132
0.00108486
0.00128672
0.00149735
0.00171641
0.00194349
0.00217818
0.00242003
0.00266855
0.00292325
0.00318356
0.00344888
0.00371858
0.00399198
0.00426838
0.00454705
0.00482724
0.00510815
0.00538897
0.00566881
0.00594677
0.00622194
0.00649341
0.00676024
0.00702152
0.00727633
0.00752374
0.00776286
0.00799278
0.00821264
0.0084216
0.00861888
0.00880375
0.00897557
0.00913373
0.00927773
0.00940714
0.0095216
0.00962087
0.00970478
0.00977328
0.00982643
0.00986442
0.00988753
0.0098962
0.00989096
0.0098725
0.00984163
0.00979928
0.00974653
0.00968457
0.00961475
0.00953851
0.00945745
0.0093733
0.00928791
0.00920325
0.00912141
0.00904457
0.00897498
0.00891487
0.00886636
0.00883152
0.00881377
0.00881557
0.000121371
9.62171e-05
5.97936e-05
1.30901e-05
-4.20844e-05
-0.000103293
-0.000168281
-0.000235028
-0.000301662
-0.000366445
-0.000427838
-0.000484495
-0.000535244
-0.000579064
-0.000615084
-0.000642579
-0.000660958
-0.000669729
-0.000668487
-0.000656909
-0.000634768
-0.000601909
-0.000558214
-0.000503602
-0.000438044
-0.000361553
-0.000274183
-0.000176019
-6.71634e-05
5.22781e-05
0.000182183
0.000322386
0.000472679
0.000632841
0.000802653
0.000981883
0.00117027
0.0013675
0.00157324
0.00178714
0.00200881
0.00223785
0.00247384
0.00271631
0.00296475
0.00321862
0.00347733
0.00374027
0.00400676
0.00427615
0.00454772
0.00482074
0.00509444
0.005368
0.00564059
0.00591134
0.00617934
0.00644372
0.00670359
0.00695806
0.00720624
0.00744725
0.0076802
0.00790422
0.00811849
0.00832221
0.00851463
0.00869504
0.00886283
0.00901744
0.00915838
0.00928523
0.00939768
0.00949548
0.00957851
0.00964671
0.00970015
0.00973902
0.00976363
0.00977438
0.00977181
0.00975659
0.0097295
0.00969146
0.00964348
0.0095867
0.00952241
0.00945196
0.00937685
0.00929867
0.00921912
0.00914
0.00906316
0.00899053
0.00892407
0.00886572
0.00881732
0.0087807
0.00875839
0.0087521
0.000203031
0.000164103
0.000119677
6.90924e-05
1.22847e-05
-4.87931e-05
-0.000112224
-0.000176324
-0.000239534
-0.000300408
-0.000357626
-0.000410002
-0.000456489
-0.000496178
-0.000528309
-0.000552228
-0.000567369
-0.000573262
-0.000569535
-0.000555901
-0.000532147
-0.000498104
-0.000453636
-0.000398658
-0.000333145
-0.000257115
-0.000170607
-7.36821e-05
3.3578e-05
0.000151079
0.000278703
0.000416291
0.000563648
0.000720571
0.000886858
0.00106229
0.00124662
0.00143953
0.0016407
0.00184979
0.00206645
0.00229028
0.00252086
0.00275775
0.00300044
0.0032484
0.00350107
0.00375784
0.00401807
0.00428111
0.00454627
0.00481284
0.00508006
0.00534714
0.00561326
0.00587757
0.00613922
0.00639734
0.00665107
0.00689954
0.0071419
0.00737729
0.00760484
0.00782372
0.00803313
0.00823229
0.00842047
0.00859701
0.00876131
0.00891282
0.00905108
0.0091757
0.00928637
0.00938286
0.00946505
0.0095329
0.0095865
0.00962602
0.00965176
0.00966414
0.00966367
0.00965102
0.00962692
0.00959227
0.00954803
0.00949531
0.0094353
0.00936928
0.00929864
0.00922486
0.0091495
0.00907416
0.00900051
0.00893026
0.0088651
0.00880668
0.00875662
0.00871651
0.00868767
0.00867065
0.000295417
0.000241301
0.000187239
0.000131013
7.07831e-05
8.08536e-06
-5.54818e-05
-0.00011856
-0.000179872
-0.000238228
-0.000292522
-0.000341733
-0.00038495
-0.000421388
-0.000450387
-0.000471365
-0.000483802
-0.000487272
-0.000481443
-0.000466057
-0.000440917
-0.000405854
-0.00036073
-0.000305464
-0.000240039
-0.000164471
-7.87847e-05
1.69787e-05
0.00012275
0.00023844
0.000363934
0.000499082
0.000643705
0.000797621
0.000960646
0.00113257
0.00131314
0.00150207
0.00169903
0.00190371
0.00211577
0.00233483
0.0025605
0.00279231
0.0030298
0.00327243
0.00351966
0.0037709
0.00402554
0.00428293
0.00454241
0.00480327
0.00506478
0.00532617
0.00558664
0.00584535
0.00610147
0.00635417
0.0066026
0.00684592
0.00708329
0.00731387
0.00753682
0.00775134
0.00795661
0.00815191
0.00833651
0.00850977
0.00867111
0.00882
0.00895599
0.00907869
0.00918782
0.00928316
0.00936458
0.00943206
0.00948568
0.00952561
0.00955215
0.00956571
0.00956679
0.00955603
0.00953415
0.009502
0.00946052
0.00941074
0.0093538
0.0092909
0.00922334
0.00915247
0.00907973
0.00900656
0.00893446
0.00886492
0.00879941
0.00873933
0.00868611
0.0086411
0.00860428
0.00857499
0.000394178
0.000324263
0.000259598
0.000196513
0.000131497
6.57901e-05
7.22696e-07
-6.26695e-05
-0.000123374
-0.000180412
-0.000232868
-0.000279897
-0.000320741
-0.000354738
-0.000381304
-0.000399929
-0.000410168
-0.000411655
-0.000404101
-0.000387271
-0.000360977
-0.000325064
-0.000279409
-0.000223947
-0.000158666
-8.35736e-05
1.32227e-06
9.59881e-05
0.00020036
0.000314351
0.000437855
0.00057073
0.000712817
0.000863952
0.00102396
0.00119265
0.00136976
0.00155502
0.00174813
0.00194878
0.00215665
0.00237139
0.0025926
0.00281985
0.00305265
0.00329051
0.00353289
0.00377922
0.00402892
0.00428134
0.00453583
0.00479171
0.00504827
0.00530473
0.00556031
0.00581422
0.00606562
0.00631371
0.00655765
0.00679662
0.0070298
0.00725635
0.00747547
0.00768634
0.00788819
0.00808029
0.00826193
0.00843249
0.00859139
0.00873811
0.00887221
0.00899332
0.00910115
0.00919549
0.00927621
0.00934329
0.00939681
0.00943694
0.00946397
0.0094783
0.00948042
0.00947094
0.00945056
0.00942011
0.00938046
0.00933262
0.00927765
0.0092167
0.00915095
0.00908168
0.00901017
0.00893776
0.00886578
0.00879553
0.00872829
0.00866524
0.00860764
0.00855664
0.00851091
0.00846857
0.000495664
0.000409842
0.000334074
0.000263328
0.000192554
0.000122777
5.51168e-05
-9.67673e-06
-7.08329e-05
-0.00012756
-0.000179117
-0.000224833
-0.000264104
-0.000296374
-0.000321139
-0.000337965
-0.000346487
-0.000346408
-0.000337486
-0.000319504
-0.000292287
-0.000255702
-0.000209656
-0.000154099
-8.90225e-05
-1.44217e-05
6.97033e-05
0.000163322
0.00026637
0.000378763
0.000500403
0.000631165
0.000770905
0.000919474
0.00107671
0.00124241
0.00141635
0.00159826
0.00178785
0.00198484
0.00218893
0.00239978
0.002617
0.00284015
0.00306879
0.00330241
0.00354052
0.00378254
0.00402791
0.00427601
0.0045262
0.0047778
0.00503011
0.00528238
0.00553384
0.0057837
0.00603116
0.00627541
0.00651564
0.00675104
0.00698078
0.00720407
0.00742008
0.00762802
0.00782713
0.00801667
0.00819595
0.00836436
0.00852131
0.00866631
0.0087989
0.00891873
0.00902549
0.00911898
0.00919908
0.00926575
0.00931907
0.00935922
0.00938646
0.00940119
0.00940388
0.00939513
0.00937561
0.0093461
0.00930747
0.00926066
0.00920667
0.00914659
0.00908153
0.00901267
0.0089412
0.00886832
0.00879522
0.00872306
0.00865294
0.00858585
0.00852293
0.00846517
0.00840997
0.00835431
0.000596876
0.000495324
0.000408239
0.000329352
0.000252156
0.000177515
0.0001064
3.93306e-05
-2.31336e-05
-8.03865e-05
-0.000131858
-0.000177032
-0.000215428
-0.000246596
-0.000270127
-0.000285668
-0.000292934
-0.000291687
-0.000281726
-0.000262862
-0.000234946
-0.000197877
-0.000151587
-9.60413e-05
-3.12291e-05
4.2858e-05
0.000126223
0.000218834
0.000320624
0.000431511
0.000551408
0.000680209
0.000817784
0.000963993
0.00111868
0.00128166
0.0014527
0.00163156
0.00181798
0.00201168
0.00221238
0.00241975
0.00263341
0.00285295
0.00307792
0.00330784
0.00354222
0.00378052
0.00402218
0.0042666
0.00451314
0.00476114
0.0050099
0.00525869
0.00550675
0.00575331
0.00599758
0.00623875
0.00647602
0.0067086
0.00693566
0.0071564
0.00737002
0.00757572
0.00777274
0.00796035
0.00813787
0.00830466
0.00846016
0.00860387
0.00873533
0.00885417
0.00896011
0.00905292
0.00913248
0.00919875
0.0092518
0.0092918
0.00931901
0.00933381
0.00933665
0.00932812
0.00930886
0.00927964
0.00924126
0.00919464
0.00914074
0.00908058
0.00901521
0.00894572
0.00887321
0.00879878
0.00872351
0.00864842
0.00857447
0.00850249
0.00843353
0.00836848
0.00830354
0.00823466
0.000695297
0.000578366
0.000479955
0.000392656
0.000308596
0.000228515
0.000153293
8.32652e-05
1.88015e-05
-3.96774e-05
-9.17592e-05
-0.000137049
-0.000175174
-0.000205791
-0.000228595
-0.000243324
-0.000249758
-0.00024771
-0.000237016
-0.000217526
-0.000189131
-0.000151763
-0.000105377
-4.99444e-05
1.45422e-05
8.80899e-05
0.000170698
0.000262331
0.000362919
0.000472388
0.00059066
0.000717646
0.000853229
0.000997275
0.00114963
0.00131013
0.00147855
0.00165467
0.00183823
0.00202899
0.00222669
0.00243099
0.00264154
0.00285792
0.00307971
0.00330644
0.00353764
0.00377279
0.00401134
0.00425269
0.00449622
0.00474128
0.00498717
0.00523318
0.00547856
0.00572254
0.00596435
0.00620318
0.00643824
0.00666872
0.00689383
0.00711274
0.00732466
0.00752879
0.00772437
0.00791067
0.00808699
0.00825271
0.00840724
0.00855008
0.00868078
0.00879896
0.00890431
0.00899662
0.00907574
0.00914164
0.00919438
0.0092341
0.00926107
0.00927563
0.00927826
0.00926949
0.00924996
0.0092204
0.0091816
0.00913443
0.00907981
0.00901871
0.00895212
0.00888108
0.00880659
0.00872967
0.00865132
0.00857244
0.00849387
0.00841633
0.0083408
0.00826811
0.00819337
0.00811158
0.000788785
0.000656942
0.000547321
0.000451476
0.000360277
0.00027437
0.000194568
0.00012105
5.4018e-05
-6.26862e-06
-5.95301e-05
-0.000105482
-0.000143857
-0.000174414
-0.00019695
-0.000211289
-0.000217271
-0.000214751
-0.000203606
-0.000183736
-0.000155075
-0.000117588
-7.12438e-05
-1.60232e-05
4.80767e-05
0.000121056
0.000202905
0.000293582
0.000393019
0.000501149
0.000617911
0.000743225
0.00087698
0.00101905
0.00116929
0.00132754
0.00149361
0.00166727
0.00184831
0.00203649
0.00223155
0.00243318
0.00264103
0.00285471
0.00307379
0.00329784
0.00352639
0.00375895
0.00399496
0.00423385
0.004475
0.00471776
0.00496145
0.00520536
0.00544876
0.00569087
0.00593093
0.00616814
0.0064017
0.00663082
0.00685467
0.00707246
0.00728337
0.0074866
0.00768137
0.00786696
0.00804265
0.00820782
0.00836188
0.00850429
0.00863461
0.00875244
0.00885746
0.00894945
0.00902827
0.00909384
0.00914623
0.00918557
0.00921212
0.0092262
0.00922827
0.00921886
0.00919858
0.00916813
0.0091283
0.0090799
0.00902384
0.00896102
0.00889242
0.00881899
0.0087417
0.00866148
0.00857925
0.00849586
0.00841202
0.00832838
0.0082459
0.00816535
0.00808088
0.00798662
0.000875492
0.000729255
0.000608635
0.000504216
0.000405728
0.000313754
0.000229039
0.000151619
8.15558e-05
1.89926e-05
-3.59075e-05
-8.2974e-05
-0.000122045
-0.000152979
-0.000175658
-0.000189979
-0.000195837
-0.000193136
-0.000181805
-0.00016179
-0.000133067
-9.56268e-05
-4.94542e-05
5.4614e-06
6.91143e-05
0.000141492
0.000222574
0.000312313
0.000410646
0.000517518
0.000632877
0.000756651
0.000888737
0.00102901
0.00117734
0.00133358
0.00149754
0.00166904
0.00184786
0.0020338
0.00222659
0.00242594
0.00263151
0.00284292
0.00305976
0.00328162
0.00350804
0.00373855
0.0039726
0.00420962
0.004449
0.00469009
0.00493223
0.0051747
0.00541679
0.00565773
0.00589674
0.00613304
0.00636582
0.00659428
0.00681759
0.00703494
0.00724551
0.00744849
0.0076431
0.00782857
0.00800422
0.00816937
0.00832343
0.00846585
0.00859618
0.00871399
0.00881896
0.00891085
0.00898948
0.00905481
0.00910685
0.00914575
0.00917172
0.00918511
0.00918633
0.00917591
0.00915445
0.00912263
0.0090812
0.00903098
0.00897281
0.0089076
0.00883626
0.00875971
0.00867887
0.00859464
0.00850786
0.00841932
0.00832969
0.00823953
0.0081498
0.00806128
0.00796722
0.00786098
0.000953801
0.000793711
0.000662368
0.000549445
0.000443613
0.000345418
0.00025555
0.000173917
0.000100473
3.52659e-05
-2.16463e-05
-7.02057e-05
-0.000110356
-0.000142045
-0.000165225
-0.000179849
-0.00018587
-0.000183254
-0.000171978
-0.000152038
-0.000123442
-8.62017e-05
-4.03176e-05
1.4207e-05
7.73515e-05
0.000149091
0.000229393
0.000318211
0.000415487
0.000521177
0.000635236
0.000757597
0.00088816
0.00102681
0.00117342
0.00132787
0.00148998
0.0016596
0.00183651
0.00202053
0.0022114
0.00240885
0.00261254
0.0028221
0.00303716
0.00325731
0.00348212
0.00371111
0.00394375
0.00417947
0.00441767
0.00465772
0.00489894
0.00514064
0.00538209
0.00562254
0.0058612
0.00609729
0.00632999
0.00655849
0.00678195
0.00699955
0.00721046
0.00741384
0.00760891
0.00779488
0.00797104
0.00813671
0.00829128
0.00843417
0.0085649
0.00868304
0.00878824
0.00888025
0.00895888
0.00902405
0.00907578
0.00911419
0.00913948
0.00915199
0.00915212
0.00914038
0.00911736
0.00908372
0.0090402
0.00898759
0.00892674
0.0088585
0.00878377
0.00870345
0.00861842
0.00852953
0.0084376
0.00834338
0.0082475
0.00815048
0.00805329
0.00795675
0.00785328
0.00773555
0.00102232
0.000848911
0.000707156
0.000585864
0.000472696
0.000368183
0.000272993
0.000186933
0.000109858
4.17232e-05
-1.75122e-05
-6.78897e-05
-0.000109446
-0.000142206
-0.000166182
-0.000181386
-0.000187828
-0.000185536
-0.000174541
-0.000154876
-0.000126576
-8.96721e-05
-4.41843e-05
9.86677e-06
7.24432e-05
0.000143505
0.000223014
0.000310926
0.000407193
0.000511774
0.000624629
0.000745694
0.000874874
0.00101206
0.00115715
0.00131002
0.00147053
0.00163853
0.00181384
0.00199625
0.00218555
0.00238145
0.00258365
0.00279179
0.00300551
0.00322442
0.00344811
0.00367609
0.00390786
0.00414286
0.00438047
0.00462007
0.00486101
0.00510258
0.00534406
0.00558469
0.00582369
0.00606026
0.00629358
0.00652281
0.00674712
0.00696566
0.00717757
0.00738201
0.00757817
0.00776526
0.00794252
0.00810925
0.00826482
0.00840864
0.00854019
0.00865903
0.00876478
0.00885717
0.00893598
0.00900112
0.0090526
0.00909051
0.00911505
0.00912654
0.00912536
0.00911203
0.00908711
0.00905126
0.0090052
0.00894972
0.00888564
0.00881381
0.00873512
0.00865043
0.00856061
0.0084665
0.0083689
0.00826853
0.008166
0.00806182
0.007957
0.00785241
0.00773973
0.00761096
0.00107986
0.000893622
0.000741765
0.000612265
0.000491812
0.000380941
0.000280329
0.000189703
0.000108818
3.75337e-05
-2.42814e-05
-7.67507e-05
-0.000119984
-0.000154072
-0.000179089
-0.00019511
-0.000202207
-0.000200459
-0.000189946
-0.000170733
-0.000142878
-0.000106436
-6.14427e-05
-7.94462e-06
5.40014e-05
0.000124346
0.000203052
0.000290077
0.000385378
0.000488917
0.000600658
0.000720538
0.000848465
0.000984346
0.00112809
0.0012796
0.00143874
0.00160539
0.00177936
0.00196048
0.00214853
0.00234324
0.00254433
0.00275145
0.00296426
0.00318239
0.00340544
0.00363293
0.00386436
0.00409918
0.00433678
0.00457654
0.0048178
0.00505987
0.00530204
0.00554352
0.00578354
0.00602129
0.00625591
0.00648658
0.00671243
0.00693258
0.00714617
0.00735234
0.00755024
0.00773905
0.007918
0.00808637
0.00824347
0.0083887
0.00852152
0.00864144
0.00874807
0.00884111
0.00892032
0.0089856
0.00903691
0.00907435
0.00909811
0.00910847
0.00910582
0.00909066
0.00906355
0.00902514
0.00897614
0.00891734
0.00884955
0.00877362
0.00869042
0.00860082
0.00850568
0.00840584
0.00830208
0.00819514
0.00808562
0.00797401
0.00786141
0.00774874
0.00762702
0.00748762
0.00112535
0.00092674
0.000765067
0.00062752
0.000499872
0.000382668
0.000276594
0.000181306
9.64732e-05
2.18622e-05
-4.2737e-05
-9.7515e-05
-0.00014264
-0.000178265
-0.000204533
-0.000221582
-0.00022954
-0.000228534
-0.000218679
-0.000200071
-0.000172793
-0.000136921
-9.25207e-05
-3.96555e-05
2.16025e-05
9.11968e-05
0.00016909
0.000255246
0.000349622
0.000452182
0.000562889
0.000681682
0.000808482
0.000943205
0.00108578
0.00123612
0.00139412
0.00155966
0.00173257
0.00191269
0.0020998
0.00229367
0.002494
0.0027005
0.00291283
0.00313063
0.0033535
0.00358099
0.0038126
0.00404778
0.00428593
0.00452643
0.00476863
0.00501184
0.00525534
0.00549834
0.00574006
0.00597966
0.00621629
0.00644909
0.00667716
0.00689963
0.00711559
0.00732416
0.00752445
0.00771562
0.00789688
0.00806745
0.00822663
0.00837378
0.00850832
0.00862974
0.00873762
0.00883162
0.00891149
0.00897708
0.00902837
0.0090654
0.00908837
0.00909753
0.00909329
0.00907611
0.00904656
0.00900528
0.00895298
0.00889046
0.00881851
0.00873801
0.00864981
0.0085548
0.00845385
0.0083478
0.00823745
0.00812353
0.00800668
0.0078874
0.00776687
0.0076461
0.00751546
0.00736577
0.00115782
0.000947251
0.000776029
0.000630602
0.000495879
0.000372405
0.000260867
0.000160854
7.19607e-05
-6.11609e-06
-7.36514e-05
-0.000130898
-0.000178084
-0.000215424
-0.000243125
-0.000261387
-0.00027039
-0.000270296
-0.000261251
-0.00024338
-0.000216796
-0.0001816
-0.000137882
-8.57261e-05
-2.52124e-05
4.36009e-05
0.000120678
0.000205981
0.000299468
0.000401102
0.000510845
0.000628645
0.000754431
0.000888137
0.00102971
0.00117907
0.00133615
0.00150081
0.00167291
0.0018523
0.00203878
0.00223212
0.00243207
0.00263832
0.00285056
0.00306846
0.00329162
0.00351959
0.00375189
0.00398795
0.00422721
0.00446903
0.00471277
0.00495774
0.00520321
0.0054484
0.00569249
0.00593463
0.00617396
0.00640959
0.0066406
0.00686607
0.0070851
0.00729674
0.0075001
0.00769429
0.00787848
0.00805186
0.00821369
0.0083633
0.00850005
0.00862342
0.00873295
0.00882825
0.00890906
0.00897521
0.00902663
0.00906336
0.00908557
0.00909353
0.00908759
0.00906823
0.00903603
0.00899161
0.0089357
0.00886908
0.00879258
0.00870706
0.00861341
0.00851253
0.0084053
0.00829259
0.00817521
0.00805395
0.00792944
0.00780225
0.00767363
0.00754469
0.00740521
0.00724548
0.00117635
0.000954218
0.00077372
0.000620591
0.000478913
0.000349239
0.00023225
0.000127473
3.44428e-05
-4.71969e-05
-0.000117777
-0.000177611
-0.000226993
-0.000266201
-0.000295502
-0.000315141
-0.000325339
-0.000326299
-0.000318196
-0.000301181
-0.000275397
-0.000240976
-0.000198029
-0.000146652
-8.69308e-05
-1.89241e-05
5.73303e-05
0.000141793
0.000234419
0.000335171
0.000444014
0.000560901
0.00068578
0.0008186
0.000959321
0.00110789
0.00126423
0.00142824
0.00159977
0.00177869
0.00196482
0.00215795
0.00235784
0.00256421
0.00277677
0.00299518
0.00321907
0.00344799
0.00368145
0.00391893
0.00415983
0.00440354
0.00464942
0.00489677
0.00514485
0.00539287
0.00564001
0.00588539
0.00612811
0.00636727
0.00660192
0.00683113
0.00705392
0.00726935
0.00747646
0.00767435
0.00786212
0.00803895
0.00820404
0.00835666
0.00849616
0.00862196
0.00873357
0.00883057
0.00891265
0.00897961
0.00903137
0.00906795
0.00908949
0.00909624
0.00908857
0.00906692
0.00903188
0.0089841
0.00892428
0.00885324
0.00877181
0.00868087
0.00858135
0.00847415
0.0083602
0.00824039
0.00811558
0.00798658
0.0078541
0.00771872
0.00758182
0.0074446
0.0072963
0.00712667
0.00118011
0.000946782
0.000757275
0.000596619
0.000448099
0.000312286
0.000189869
8.03162e-05
-1.68882e-05
-0.000102149
-0.000175849
-0.000238369
-0.000290067
-0.000331278
-0.000362314
-0.000383466
-0.000394991
-0.000397123
-0.000390071
-0.00037402
-0.00034914
-0.00031559
-0.000273494
-0.000222958
-0.000164071
-9.68948e-05
-2.14719e-05
6.21553e-05
0.00015394
0.000253845
0.000361839
0.00047789
0.000601959
0.000734015
0.00087403
0.00102197
0.00117776
0.0013413
0.00151249
0.00169118
0.00187723
0.00207045
0.0022706
0.00247744
0.00269069
0.00291001
0.00313504
0.00336536
0.00360048
0.00383986
0.00408294
0.00432911
0.00457771
0.00482805
0.00507938
0.00533089
0.00558174
0.00583104
0.00607786
0.00632127
0.00656029
0.00679394
0.00702124
0.00724117
0.00745276
0.00765505
0.0078471
0.00802803
0.00819701
0.00835326
0.00849608
0.00862484
0.008739
0.00883812
0.00892185
0.00898994
0.0090423
0.00907892
0.00909991
0.00910551
0.00909608
0.00907208
0.00903408
0.00898272
0.00891875
0.00884298
0.00875627
0.00865954
0.00855373
0.00843979
0.00831868
0.00819134
0.00805868
0.00792157
0.00778076
0.00763691
0.00749149
0.00734584
0.00718865
0.00700915
0.00116836
0.000924147
0.000725863
0.000557845
0.000402592
0.000260705
0.000132893
1.85785e-05
-8.2806e-05
-0.000171719
-0.000248605
-0.000313898
-0.000368014
-0.000411338
-0.000444225
-0.000466999
-0.000479956
-0.000483363
-0.000477465
-0.000462479
-0.000438602
-0.000406009
-0.000364837
-0.000315197
-0.000257184
-0.000190864
-0.000116286
-3.34975e-05
5.74545e-05
0.000156535
0.000263726
0.000379006
0.000502354
0.000633751
0.000773185
0.00092063
0.00107603
0.0012393
0.00141034
0.00158903
0.00177525
0.00196883
0.00216956
0.0023772
0.00259148
0.00281209
0.00303868
0.00327083
0.00350806
0.00374985
0.00399563
0.0042448
0.0044967
0.00475063
0.00500583
0.00526149
0.00551673
0.00577064
0.00602227
0.00627065
0.00651477
0.00675362
0.00698616
0.00721135
0.00742816
0.00763559
0.00783264
0.00801838
0.00819193
0.00835246
0.0084992
0.0086315
0.00874875
0.00885046
0.00893625
0.00900585
0.00905911
0.00909599
0.00911661
0.00912117
0.00911002
0.00908363
0.00904256
0.00898747
0.00891912
0.00883835
0.00874605
0.00864316
0.00853066
0.00840956
0.00828086
0.00814556
0.00800463
0.00785901
0.00770949
0.00755683
0.00740262
0.00724832
0.00708208
0.00689265
0.00114038
0.000885554
0.000678687
0.000503452
0.000341578
0.000193695
6.05413e-05
-5.85053e-05
-0.000164068
-0.000256661
-0.000336786
-0.000404928
-0.000461548
-0.000507072
-0.000541896
-0.000566384
-0.000580864
-0.000585641
-0.000580995
-0.00056717
-0.000544386
-0.000512828
-0.000472645
-0.000423954
-0.000366855
-0.000301424
-0.000227714
-0.000145777
-5.56586e-05
4.26148e-05
0.000149036
0.000263601
0.0003863
0.000517131
0.000656092
0.000803168
0.000958317
0.00112147
0.00129254
0.00147145
0.00165807
0.00185227
0.00205385
0.00226259
0.00247825
0.00270051
0.00292904
0.00316343
0.00340322
0.00364788
0.00389687
0.00414958
0.00440535
0.00466347
0.00492317
0.00518362
0.00544392
0.00570314
0.0059603
0.00621438
0.00646436
0.00670916
0.00694772
0.00717895
0.00740176
0.00761509
0.0078179
0.00800921
0.00818805
0.00835355
0.00850489
0.00864134
0.00876226
0.00886711
0.00895545
0.00902696
0.00908148
0.00911892
0.00913938
0.00914305
0.00913027
0.00910149
0.00905728
0.00899834
0.00892542
0.0088394
0.0087412
0.0086318
0.00851224
0.00838356
0.00824684
0.00810313
0.00795349
0.00779892
0.0076403
0.00747845
0.00731511
0.00715187
0.00697635
0.00677679
0.00109549
0.000830274
0.000614988
0.000432661
0.000264283
0.000110494
-2.79426e-05
-0.000151692
-0.000261433
-0.000357733
-0.000441142
-0.00051219
-0.000571377
-0.00061917
-0.000656002
-0.000682278
-0.000698366
-0.000704605
-0.000701304
-0.00068873
-0.000667119
-0.000636668
-0.000597533
-0.000549842
-0.000493703
-0.0004292
-0.000356392
-0.000275331
-0.000186055
-8.85822e-05
1.7095e-05
0.000130985
0.000253094
0.000383431
0.000522005
0.000668814
0.00082383
0.000987004
0.00115828
0.00133757
0.00152481
0.00171986
0.00192255
0.00213268
0.00235002
0.00257427
0.0028051
0.00304213
0.00328489
0.0035329
0.00378558
0.00404235
0.00430254
0.00456544
0.00483025
0.00509614
0.00536218
0.00562741
0.00589081
0.00615135
0.00640794
0.00665949
0.00690487
0.00714294
0.00737256
0.00759261
0.00780199
0.00799965
0.00818456
0.00835579
0.00851244
0.00865374
0.00877897
0.00888754
0.00897897
0.00905288
0.00910906
0.00914742
0.009168
0.00917098
0.00915669
0.00912557
0.00907822
0.00901532
0.00893768
0.00884618
0.00874179
0.00862555
0.00849854
0.00836187
0.00821669
0.00806413
0.00790531
0.00774132
0.00757314
0.00740167
0.00722879
0.00705625
0.00687112
0.00666113
0.00103299
0.000757602
0.000534053
0.000344752
0.000169969
1.03605e-05
-0.000133306
-0.000261738
-0.000375663
-0.000475691
-0.000562415
-0.000636407
-0.000698206
-0.00074832
-0.000787224
-0.000815361
-0.000833138
-0.000840927
-0.000839056
-0.000827815
-0.00080745
-0.000778171
-0.000740144
-0.00069351
-0.000638386
-0.000574861
-0.000502998
-0.000422846
-0.000334431
-0.000237761
-0.000132816
-1.95747e-05
0.000101982
0.000231875
0.000370125
0.000516744
0.000671722
0.000835033
0.00100664
0.00118649
0.00137452
0.00157063
0.00177467
0.00198644
0.00220574
0.00243228
0.00266576
0.00290579
0.00315194
0.00340372
0.00366057
0.0039219
0.00418705
0.0044553
0.00472584
0.0049978
0.00527025
0.00554218
0.00581256
0.00608031
0.00634431
0.00660341
0.00685643
0.00710218
0.00733946
0.00756709
0.00778389
0.00798875
0.00818057
0.00835833
0.00852109
0.00866798
0.00879824
0.00891119
0.00900631
0.00908317
0.00914151
0.00918118
0.00920221
0.00920477
0.00918915
0.0091558
0.00910532
0.00903842
0.00895592
0.00885874
0.0087479
0.00862449
0.00848965
0.00834458
0.00819048
0.00802858
0.00786008
0.00768618
0.00750794
0.00732636
0.00714348
0.00696119
0.00676601
0.00654514
0.000952245
0.000666862
0.000435195
0.000239028
5.79258e-05
-0.000107442
-0.000256298
-0.000389398
-0.000507507
-0.000611273
-0.000701329
-0.000778289
-0.000842737
-0.000895221
-0.000936258
-0.000966329
-0.000985875
-0.000995292
-0.000994931
-0.000985094
-0.000966045
-0.000938004
-0.000901153
-0.000855642
-0.000801597
-0.000739112
-0.000668248
-0.000589045
-0.000501521
-0.000405669
-0.000301461
-0.000188863
-6.78432e-05
6.163e-05
0.000199593
0.000346073
0.000501083
0.000664619
0.000836669
0.00101721
0.00120619
0.00140354
0.00160912
0.00182276
0.00204426
0.00227338
0.0025098
0.00275318
0.0030031
0.00325906
0.00352053
0.00378691
0.00405754
0.00433169
0.00460855
0.00488722
0.00516674
0.00544608
0.00572418
0.00599991
0.00627211
0.00653959
0.00680111
0.00705542
0.00730126
0.00753736
0.00776249
0.00797545
0.00817507
0.00836025
0.00852997
0.00868328
0.00881934
0.00893742
0.00903692
0.00911735
0.00917839
0.00921987
0.00924176
0.00924421
0.0092275
0.00919208
0.00913854
0.00906762
0.00898016
0.00887712
0.00875958
0.00862869
0.00848566
0.00833175
0.00816827
0.00799652
0.00781782
0.00763345
0.00744459
0.00725234
0.00705891
0.00686635
0.00666061
0.00642828
0.000852613
0.000557395
0.000317732
0.000114792
-7.25661e-05
-0.000243651
-0.000397669
-0.000535414
-0.000657696
-0.0007652
-0.000858598
-0.000938547
-0.00100568
-0.00106058
-0.00110381
-0.00113589
-0.00115728
-0.0011684
-0.00116962
-0.00116126
-0.00114359
-0.00111686
-0.00108126
-0.00103695
-0.000984063
-0.000922688
-0.000852884
-0.000774684
-0.000688092
-0.000593092
-0.000489646
-0.000377708
-0.000257237
-0.000128185
9.49904e-06
0.000155865
0.000310947
0.00047477
0.000647344
0.000828672
0.00101873