/*--------------------------------*- C++ -*----------------------------------*\
| =========                 |                                                 |
| \\      /  F ield         | OpenFOAM: The Open Source CFD Toolbox           |
|  \\    /   O peration     | Version:  2512                                  |
|   \\  /    A nd           | Website:  www.openfoam.com                      |
|    \\/     M anipulation  |                                                 |
\*---------------------------------------------------------------------------*/
FoamFile
{
    version     2.0;
    format      ascii;
    arch        "LSB;label=32;scalar=64";
    class       surfaceScalarField;
    location    "0.22";
    object      phi;
}
// * * * * * * * * * * * * * * * * * * * * * * * * * * * * * * * * * * * * * //

dimensions      [0 3 -1 0 0 0 0];

oriented        oriented;

internalField   nonuniform List<scalar> 
19800
(
6.17484e-11
-6.17791e-11
1.76463e-10
-1.14694e-10
2.71527e-10
-9.50741e-11
3.10696e-10
-3.91602e-11
2.75769e-10
3.4923e-11
1.59855e-10
1.15917e-10
-3.78484e-11
1.97699e-10
-3.14725e-10
2.76882e-10
-6.66376e-10
3.51648e-10
-1.08739e-09
4.21014e-10
-1.57192e-09
4.84526e-10
-2.11392e-09
5.41998e-10
-2.70737e-09
5.93451e-10
-3.34642e-09
6.3905e-10
-4.02546e-09
6.79033e-10
-4.73911e-09
7.13656e-10
-5.4823e-09
7.43183e-10
-6.25022e-09
7.67914e-10
-7.03838e-09
7.88163e-10
-7.8426e-09
8.04217e-10
-8.65894e-09
8.16341e-10
-9.48372e-09
8.24783e-10
-1.03135e-08
8.29777e-10
-1.11451e-08
8.31553e-10
-1.19754e-08
8.30333e-10
-1.28017e-08
8.26287e-10
-1.36212e-08
8.1955e-10
-1.44315e-08
8.1026e-10
-1.523e-08
7.98562e-10
-1.60146e-08
7.84566e-10
-1.6783e-08
7.68348e-10
-1.75329e-08
7.49975e-10
-1.82625e-08
7.29513e-10
-1.89695e-08
7.07014e-10
-1.9652e-08
6.82515e-10
-2.0308e-08
6.56043e-10
-2.09356e-08
6.27625e-10
-2.15329e-08
5.97286e-10
-2.2098e-08
5.65042e-10
-2.26289e-08
5.30915e-10
-2.31238e-08
4.94923e-10
-2.35809e-08
4.57091e-10
-2.39984e-08
4.17453e-10
-2.43744e-08
3.76043e-10
-2.47073e-08
3.32904e-10
-2.49954e-08
2.88091e-10
-2.52371e-08
2.41669e-10
-2.54308e-08
1.93725e-10
-2.55751e-08
1.44354e-10
-2.56688e-08
9.36655e-11
-2.57106e-08
4.17869e-11
-2.56995e-08
-1.11383e-11
-2.56345e-08
-6.49531e-11
-2.5515e-08
-1.19478e-10
-2.53405e-08
-1.74517e-10
-2.51106e-08
-2.29856e-10
-2.48254e-08
-2.85256e-10
-2.44849e-08
-3.40465e-10
-2.40897e-08
-3.95223e-10
-2.36405e-08
-4.49251e-10
-2.31382e-08
-5.0226e-10
-2.25843e-08
-5.53948e-10
-2.19803e-08
-6.04002e-10
-2.13281e-08
-6.52102e-10
-2.06302e-08
-6.97926e-10
-1.98891e-08
-7.41147e-10
-1.91076e-08
-7.81439e-10
-1.82892e-08
-8.18483e-10
-1.74372e-08
-8.51967e-10
-1.65556e-08
-8.8159e-10
-1.56485e-08
-9.07062e-10
-1.47204e-08
-9.28114e-10
-1.37759e-08
-9.44496e-10
-1.282e-08
-9.55974e-10
-1.18576e-08
-9.62342e-10
-1.08942e-08
-9.63424e-10
-9.93513e-09
-9.5907e-10
-8.98597e-09
-9.49159e-10
-8.05236e-09
-9.33604e-10
-7.14e-09
-9.12355e-10
-6.25461e-09
-8.85397e-10
-5.40186e-09
-8.52745e-10
-4.5874e-09
-8.14457e-10
-3.81676e-09
-7.70635e-10
-3.09534e-09
-7.2142e-10
-2.42835e-09
-6.67e-10
-1.82073e-09
-6.07612e-10
-1.27717e-09
-5.43558e-10
-8.01956e-10
-4.75219e-10
-3.98879e-10
-4.0308e-10
-7.11096e-11
-3.27772e-10
1.79035e-10
-2.50145e-10
3.50413e-10
-1.71377e-10
4.4359e-10
-9.3175e-11
4.61732e-10
-1.81458e-11
4.12026e-10
4.9698e-11
3.08061e-10
1.03962e-10
1.73898e-10
1.34178e-10
5.11616e-11
1.22772e-10
5.11973e-11
1.09561e-10
-1.71321e-10
2.59667e-10
-2.64824e-10
3.40702e-10
-1.76094e-10
2.82797e-10
1.87375e-11
4.59671e-11
2.71764e-10
-3.90005e-10
5.5188e-10
-1.03172e-09
8.39419e-10
-1.87693e-09
1.12208e-09
-2.91768e-09
1.3924e-09
-4.1426e-09
1.64593e-09
-5.53827e-09
1.88018e-09
-7.09014e-09
2.09388e-09
-8.78327e-09
2.28658e-09
-1.06027e-08
2.45843e-09
-1.25336e-08
2.60993e-09
-1.45617e-08
2.74179e-09
-1.66733e-08
2.85484e-09
-1.88555e-08
2.95003e-09
-2.10956e-08
3.02833e-09
-2.33821e-08
3.09072e-09
-2.57039e-08
3.13813e-09
-2.80506e-08
3.17145e-09
-3.04124e-08
3.19153e-09
-3.278e-08
3.19919e-09
-3.51448e-08
3.19514e-09
-3.74986e-08
3.18005e-09
-3.98335e-08
3.15449e-09
-4.21423e-08
3.119e-09
-4.44177e-08
3.07404e-09
-4.66532e-08
3.02002e-09
-4.88421e-08
2.95728e-09
-5.09783e-08
2.88611e-09
-5.30555e-08
2.80675e-09
-5.50679e-08
2.71941e-09
-5.70096e-08
2.62425e-09
-5.8875e-08
2.52143e-09
-6.06584e-08
2.41106e-09
-6.23544e-08
2.29325e-09
-6.39575e-08
2.16809e-09
-6.54622e-08
2.03568e-09
-6.68634e-08
1.89613e-09
-6.81559e-08
1.74956e-09
-6.93346e-08
1.5961e-09
-7.03944e-08
1.43593e-09
-7.13308e-08
1.26923e-09
-7.21389e-08
1.09623e-09
-7.28144e-08
9.17216e-10
-7.33532e-08
7.32516e-10
-7.37514e-08
5.42512e-10
-7.40054e-08
3.47636e-10
-7.4112e-08
1.48384e-10
-7.40684e-08
-5.46828e-11
-7.38724e-08
-2.60942e-10
-7.35222e-08
-4.69708e-10
-7.30165e-08
-6.80226e-10
-7.23547e-08
-8.91675e-10
-7.15368e-08
-1.10317e-09
-7.05635e-08
-1.31377e-09
-6.94362e-08
-1.52246e-09
-6.81573e-08
-1.72821e-09
-6.67296e-08
-1.92992e-09
-6.51571e-08
-2.12644e-09
-6.34445e-08
-2.31661e-09
-6.15974e-08
-2.49923e-09
-5.96222e-08
-2.67309e-09
-5.75264e-08
-2.83699e-09
-5.53181e-08
-2.98971e-09
-5.30065e-08
-3.13006e-09
-5.06016e-08
-3.25689e-09
-4.81141e-08
-3.36906e-09
-4.55557e-08
-3.46551e-09
-4.29386e-08
-3.54523e-09
-4.02758e-08
-3.60729e-09
-3.75809e-08
-3.65083e-09
-3.48682e-08
-3.67511e-09
-3.21521e-08
-3.67947e-09
-2.94478e-08
-3.66335e-09
-2.67706e-08
-3.62635e-09
-2.41361e-08
-3.56816e-09
-2.15598e-08
-3.48861e-09
-1.90575e-08
-3.38768e-09
-1.66448e-08
-3.26549e-09
-1.43369e-08
-3.12232e-09
-1.2149e-08
-2.9586e-09
-1.00954e-08
-2.77496e-09
-8.19021e-09
-2.57221e-09
-6.44641e-09
-2.35141e-09
-4.87612e-09
-2.11386e-09
-3.4901e-09
-1.86123e-09
-2.29755e-09
-1.59563e-09
-1.30554e-09
-1.31979e-09
-5.18436e-10
-1.03725e-09
6.30389e-11
-7.52851e-10
4.43099e-10
-4.73232e-10
6.32736e-10
-2.07781e-10
6.52472e-10
2.99617e-11
5.35994e-10
2.20419e-10
3.34795e-10
3.35314e-10
1.22333e-10
3.35153e-10
1.73554e-10
9.4413e-11
-2.65744e-10
1.73163e-10
-3.43561e-10
1.165e-10
-1.19437e-10
-1.55368e-10
2.90616e-10
-6.92559e-10
8.08948e-10
-1.52263e-09
1.38196e-09
-2.65644e-09
1.97322e-09
-4.09295e-09
2.55859e-09
-5.82292e-09
3.12237e-09
-7.8316e-09
3.65461e-09
-1.01007e-08
4.14925e-09
-1.26097e-08
4.60287e-09
-1.5337e-08
5.01389e-09
-1.82606e-08
5.38202e-09
-2.13584e-08
5.7078e-09
-2.4609e-08
5.99236e-09
-2.79913e-08
6.23718e-09
-3.14853e-08
6.44399e-09
-3.50716e-08
6.61466e-09
-3.8732e-08
6.75106e-09
-4.24489e-08
6.85508e-09
-4.6206e-08
6.92853e-09
-4.99876e-08
6.97316e-09
-5.3779e-08
6.9906e-09
-5.75663e-08
6.98237e-09
-6.13361e-08
6.94986e-09
-6.50759e-08
6.89431e-09
-6.87737e-08
6.81684e-09
-7.24181e-08
6.71845e-09
-7.59981e-08
6.60001e-09
-7.95032e-08
6.4623e-09
-8.2923e-08
6.30594e-09
-8.62477e-08
6.13148e-09
-8.94677e-08
5.93941e-09
-9.25736e-08
5.73011e-09
-9.55561e-08
5.50393e-09
-9.84062e-08
5.26116e-09
-1.01115e-07
5.00208e-09
-1.03674e-07
4.72692e-09
-1.06074e-07
4.43595e-09
-1.08307e-07
4.12943e-09
-1.10366e-07
3.80766e-09
-1.1224e-07
3.47096e-09
-1.13924e-07
3.11974e-09
-1.15409e-07
2.75446e-09
-1.16689e-07
2.37566e-09
-1.17756e-07
1.98396e-09
-1.18603e-07
1.58012e-09
-1.19226e-07
1.16498e-09
-1.19618e-07
7.39513e-10
-1.19774e-07
3.04814e-10
-1.19691e-07
-1.37886e-10
-1.19364e-07
-5.87218e-10
-1.18793e-07
-1.04168e-09
-1.17973e-07
-1.49964e-09
-1.16905e-07
-1.95931e-09
-1.1559e-07
-2.41878e-09
-1.14028e-07
-2.87601e-09
-1.12221e-07
-3.32885e-09
-1.10174e-07
-3.77504e-09
-1.07892e-07
-4.21221e-09
-1.05381e-07
-4.63792e-09
-1.02648e-07
-5.04967e-09
-9.97019e-08
-5.4449e-09
-9.65539e-08
-5.82104e-09
-9.32155e-08
-6.17548e-09
-8.96995e-08
-6.50565e-09
-8.60206e-08
-6.80902e-09
-8.21943e-08
-7.08311e-09
-7.82379e-08
-7.32553e-09
-7.41694e-08
-7.534e-09
-7.00082e-08
-7.7064e-09
-6.57748e-08
-7.84073e-09
-6.14904e-08
-7.93519e-09
-5.71774e-08
-7.98819e-09
-5.28585e-08
-7.99836e-09
-4.85572e-08
-7.96457e-09
-4.42977e-08
-7.88594e-09
-4.01039e-08
-7.76188e-09
-3.60005e-08
-7.59208e-09
-3.20116e-08
-7.37655e-09
-2.81614e-08
-7.11564e-09
-2.44737e-08
-6.81002e-09
-2.09716e-08
-6.46077e-09
-1.76772e-08
-6.06934e-09
-1.46117e-08
-5.63768e-09
-1.17949e-08
-5.16823e-09
-9.24466e-09
-4.66409e-09
-6.97679e-09
-4.12911e-09
-5.00426e-09
-3.56816e-09
-3.33663e-09
-2.98742e-09
-1.979e-09
-2.39487e-09
-9.30883e-10
-1.80097e-09
-1.84471e-10
-1.21965e-09
2.7754e-10
-6.69793e-10
4.84743e-10
-1.77216e-10
4.8255e-10
2.22656e-10
3.36023e-10
4.81867e-10
1.33811e-10
5.37325e-10
3.07372e-10
3.96584e-11
-3.05393e-10
-1.89365e-11
-2.84975e-10
-2.91456e-10
1.53095e-10
-8.56439e-10
8.55586e-10
-1.765e-09
1.71751e-09
-3.04643e-09
2.66338e-09
-4.71289e-09
3.63968e-09
-6.76361e-09
4.60932e-09
-9.18834e-09
5.5471e-09
-1.197e-08
6.43626e-09
-1.50868e-08
7.26608e-09
-1.85141e-08
8.03011e-09
-2.22251e-08
8.72496e-09
-2.61925e-08
9.3494e-09
-3.03884e-08
9.90373e-09
-3.47854e-08
1.03893e-08
-3.93564e-08
1.08082e-08
-4.40754e-08
1.1163e-08
-4.89172e-08
1.14564e-08
-5.38576e-08
1.16915e-08
-5.88736e-08
1.18711e-08
-6.39434e-08
1.19983e-08
-6.9046e-08
1.20758e-08
-7.41618e-08
1.21063e-08
-7.92718e-08
1.20924e-08
-8.43582e-08
1.20363e-08
-8.9404e-08
1.19401e-08
-9.43929e-08
1.18057e-08
-9.93093e-08
1.16348e-08
-1.04138e-07
1.1429e-08
-1.08865e-07
1.11894e-08
-1.13477e-07
1.09173e-08
-1.17959e-07
1.06136e-08
-1.22299e-07
1.02791e-08
-1.26483e-07
9.91465e-09
-1.305e-07
9.52079e-09
-1.34337e-07
9.09809e-09
-1.37982e-07
8.64707e-09
-1.41423e-07
8.16822e-09
-1.44649e-07
7.66202e-09
-1.47649e-07
7.12899e-09
-1.50411e-07
6.5697e-09
-1.52925e-07
5.98477e-09
-1.5518e-07
5.37494e-09
-1.57166e-07
4.74105e-09
-1.58875e-07
4.08408e-09
-1.60296e-07
3.40518e-09
-1.61422e-07
2.70565e-09
-1.62244e-07
1.987e-09
-1.62755e-07
1.25093e-09
-1.6295e-07
4.99369e-10
-1.62822e-07
-2.65556e-10
-1.62368e-07
-1.04147e-09
-1.61584e-07
-1.82578e-09
-1.60468e-07
-2.61566e-09
-1.59019e-07
-3.40803e-09
-1.57238e-07
-4.19963e-09
-1.55127e-07
-4.98697e-09
-1.5269e-07
-5.76635e-09
-1.49931e-07
-6.53391e-09
-1.46857e-07
-7.28563e-09
-1.43478e-07
-8.01734e-09
-1.39803e-07
-8.72479e-09
-1.35844e-07
-9.40362e-09
-1.31616e-07
-1.00495e-08
-1.27133e-07
-1.06579e-08
-1.22414e-07
-1.12246e-08
-1.17478e-07
-1.17452e-08
-1.12346e-07
-1.22155e-08
-1.0704e-07
-1.26316e-08
-1.01584e-07
-1.29895e-08
-9.60048e-08
-1.32857e-08
-9.03287e-08
-1.35168e-08
-8.4584e-08
-1.36798e-08
-7.88002e-08
-1.3772e-08
-7.30074e-08
-1.37911e-08
-6.72367e-08
-1.37353e-08
-6.15195e-08
-1.36031e-08
-5.58878e-08
-1.33936e-08
-5.03736e-08
-1.31063e-08
-4.50088e-08
-1.27414e-08
-3.98249e-08
-1.22995e-08
-3.48529e-08
-1.1782e-08
-3.01228e-08
-1.11909e-08
-2.56634e-08
-1.05288e-08
-2.15018e-08
-9.79929e-09
-1.76632e-08
-9.00683e-09
-1.41703e-08
-8.15699e-09
-1.10427e-08
-7.25669e-09
-8.29629e-09
-6.31456e-09
-5.9423e-09
-5.34141e-09
-3.98622e-09
-4.35095e-09
-2.42649e-09
-3.3607e-09
-1.25275e-09
-2.3934e-09
-4.43764e-10
-1.4788e-09
3.51281e-11
-6.56123e-10
2.35054e-10
2.27274e-11
2.26775e-10
4.90172e-10
1.0497e-10
6.59119e-10
4.1234e-10
-3.31595e-11
-2.72235e-10
-2.70725e-10
-4.74014e-11
-8.11002e-10
6.93365e-10
-1.72327e-09
1.76786e-09
-3.05371e-09
3.04795e-09
-4.82896e-09
4.43863e-09
-7.05967e-09
5.87039e-09
-9.7438e-09
7.29345e-09
-1.28695e-08
8.67279e-09
-1.64176e-08
9.98432e-09
-2.03635e-08
1.1212e-08
-2.46791e-08
1.23457e-08
-2.9334e-08
1.33798e-08
-3.42962e-08
1.43116e-08
-3.95334e-08
1.51409e-08
-4.50131e-08
1.58691e-08
-5.07035e-08
1.64986e-08
-5.65733e-08
1.70328e-08
-6.25922e-08
1.74754e-08
-6.87313e-08
1.78305e-08
-7.49624e-08
1.81022e-08
-8.12589e-08
1.82948e-08
-8.75952e-08
1.84121e-08
-9.39471e-08
1.84582e-08
-1.00291e-07
1.84365e-08
-1.06606e-07
1.83506e-08
-1.12869e-07
1.82034e-08
-1.19061e-07
1.79977e-08
-1.25162e-07
1.77362e-08
-1.31154e-07
1.7421e-08
-1.37019e-07
1.70541e-08
-1.42739e-07
1.66373e-08
-1.48297e-07
1.6172e-08
-1.53678e-07
1.56596e-08
-1.58864e-07
1.51012e-08
-1.63841e-07
1.44978e-08
-1.68593e-07
1.38504e-08
-1.73106e-07
1.31597e-08
-1.77365e-07
1.24266e-08
-1.81354e-07
1.1652e-08
-1.85062e-07
1.08365e-08
-1.88474e-07
9.98127e-09
-1.91576e-07
9.08723e-09
-1.94357e-07
8.15557e-09
-1.96803e-07
7.18765e-09
-1.98904e-07
6.18502e-09
-2.00648e-07
5.14946e-09
-2.02026e-07
4.08303e-09
-2.03027e-07
2.98805e-09
-2.03643e-07
1.86715e-09
-2.03867e-07
7.23279e-10
-2.03692e-07
-4.40296e-10
-2.03114e-07
-1.61996e-09
-2.02128e-07
-2.81178e-09
-2.00732e-07
-4.01143e-09
-1.98926e-07
-5.21429e-09
-1.9671e-07
-6.41541e-09
-1.94087e-07
-7.60953e-09
-1.91063e-07
-8.79107e-09
-1.87642e-07
-9.95423e-09
-1.83835e-07
-1.1093e-08
-1.79651e-07
-1.2201e-08
-1.75104e-07
-1.3272e-08
-1.70208e-07
-1.42994e-08
-1.64981e-07
-1.52766e-08
-1.59442e-07
-1.61971e-08
-1.53612e-07
-1.70543e-08
-1.47516e-07
-1.78418e-08
-1.41178e-07
-1.85534e-08
-1.34627e-07
-1.9183e-08
-1.27891e-07
-1.97249e-08
-1.21003e-07
-2.01738e-08
-1.13995e-07
-2.05246e-08
-1.06902e-07
-2.07729e-08
-9.97596e-08
-2.09147e-08
-9.26041e-08
-2.09467e-08
-8.54733e-08
-2.08661e-08
-7.84056e-08
-2.06708e-08
-7.14395e-08
-2.03596e-08
-6.46138e-08
-1.99319e-08
-5.79671e-08
-1.93881e-08
-5.15373e-08
-1.87293e-08
-4.53616e-08
-1.79577e-08
-3.9476e-08
-1.70765e-08
-3.39148e-08
-1.609e-08
-2.87103e-08
-1.50038e-08
-2.38922e-08
-1.38249e-08
-1.94872e-08
-1.25621e-08
-1.55179e-08
-1.1226e-08
-1.20025e-08
-9.82988e-09
-8.95383e-09
-8.39012e-09
-6.37772e-09
-6.92706e-09
-4.27219e-09
-5.46623e-09
-2.62563e-09
-4.03995e-09
-1.41503e-09
-2.68938e-09
-6.03875e-10
-1.4673e-09
-1.39711e-10
-4.41461e-10
4.85748e-11
3.01896e-10
5.4027e-11
6.53667e-10
4.66363e-10
-1.14012e-10
-1.58218e-10
-5.53265e-10
3.91842e-10
-1.39262e-09
1.53272e-09
-2.68692e-09
3.06217e-09
-4.47303e-09
4.83405e-09
-6.77156e-09
6.73717e-09
-9.58916e-09
8.68799e-09
-1.29208e-08
1.06251e-08
-1.67523e-08
1.25042e-08
-2.10618e-08
1.42938e-08
-2.58222e-08
1.59724e-08
-3.10024e-08
1.7526e-08
-3.65687e-08
1.89461e-08
-4.24856e-08
2.02285e-08
-4.87168e-08
2.13721e-08
-5.52259e-08
2.23782e-08
-6.19768e-08
2.32494e-08
-6.89339e-08
2.39899e-08
-7.60627e-08
2.46042e-08
-8.33297e-08
2.50975e-08
-9.07027e-08
2.54752e-08
-9.81506e-08
2.57427e-08
-1.05644e-07
2.59053e-08
-1.13154e-07
2.59682e-08
-1.20653e-07
2.59361e-08
-1.28116e-07
2.58137e-08
-1.35518e-07
2.56052e-08
-1.42835e-07
2.53144e-08
-1.50043e-07
2.49447e-08
-1.57122e-07
2.44992e-08
-1.64048e-07
2.39807e-08
-1.70803e-07
2.33917e-08
-1.77365e-07
2.27342e-08
-1.83715e-07
2.20102e-08
-1.89836e-07
2.12212e-08
-1.95707e-07
2.03689e-08
-2.01311e-07
1.94545e-08
-2.0663e-07
1.84792e-08
-2.11648e-07
1.74444e-08
-2.16347e-07
1.63512e-08
-2.20712e-07
1.52008e-08
-2.24725e-07
1.39948e-08
-2.28372e-07
1.27346e-08
-2.31639e-07
1.14219e-08
-2.3451e-07
1.00588e-08
-2.36972e-07
8.64742e-09
-2.39013e-07
7.19043e-09
-2.40621e-07
5.69073e-09
-2.41784e-07
4.15163e-09
-2.42494e-07
2.57687e-09
-2.42741e-07
9.70602e-10
-2.42519e-07
-6.62553e-10
-2.41822e-07
-2.31752e-09
-2.40645e-07
-3.98875e-09
-2.38986e-07
-5.67024e-09
-2.36845e-07
-7.35551e-09
-2.34222e-07
-9.03766e-09
-2.31123e-07
-1.07093e-08
-2.27551e-07
-1.23628e-08
-2.23515e-07
-1.39901e-08
-2.19025e-07
-1.55826e-08
-2.14095e-07
-1.71318e-08
-2.08738e-07
-1.86288e-08
-2.02972e-07
-2.00646e-08
-1.96819e-07
-2.14301e-08
-1.903e-07
-2.27162e-08
-1.8344e-07
-2.39139e-08
-1.76268e-07
-2.50143e-08
-1.68812e-07
-2.60088e-08
-1.61106e-07
-2.68891e-08
-1.53184e-07
-2.76473e-08
-1.45081e-07
-2.8276e-08
-1.36838e-07
-2.87684e-08
-1.28492e-07
-2.91183e-08
-1.20087e-07
-2.93204e-08
-1.11663e-07
-2.937e-08
-1.03266e-07
-2.92635e-08
-9.49385e-08
-2.89981e-08
-8.6726e-08
-2.85722e-08
-7.86728e-08
-2.79851e-08
-7.08234e-08
-2.72375e-08
-6.32214e-08
-2.63313e-08
-5.59096e-08
-2.52696e-08
-4.89289e-08
-2.40572e-08
-4.23186e-08
-2.27003e-08
-3.61153e-08
-2.1207e-08
-3.03528e-08
-1.95875e-08
-2.50608e-08
-1.7854e-08
-2.0265e-08
-1.60218e-08
-1.59856e-08
-1.41093e-08
-1.22368e-08
-1.2139e-08
-9.02527e-09
-1.01386e-08
-6.34944e-09
-8.14206e-09
-4.19776e-09
-6.19163e-09
-2.54732e-09
-4.33981e-09
-1.36227e-09
-2.65236e-09
-5.91976e-10
-1.21177e-09
-1.69253e-10
-1.2083e-10
-8.19664e-12
4.92609e-10
4.58164e-10
-1.97247e-10
3.90244e-11
-8.4849e-10
1.04309e-09
-2.00343e-09
2.68765e-09
-3.69962e-09
4.75835e-09
-5.96175e-09
7.09618e-09
-8.80194e-09
9.57735e-09
-1.22208e-08
1.21068e-08
-1.62088e-08
1.46131e-08
-2.0748e-08
1.70435e-08
-2.58139e-08
1.93597e-08
-3.13763e-08
2.15348e-08
-3.74012e-08
2.35509e-08
-4.3852e-08
2.53968e-08
-5.06899e-08
2.70665e-08
-5.78755e-08
2.85577e-08
-6.53688e-08
2.98715e-08
-7.31301e-08
3.10107e-08
-8.11201e-08
3.19799e-08
-8.93006e-08
3.27847e-08
-9.76344e-08
3.34312e-08
-1.06085e-07
3.39261e-08
-1.14619e-07
3.42761e-08
-1.23201e-07
3.44877e-08
-1.31801e-07
3.45675e-08
-1.40386e-07
3.45217e-08
-1.48928e-07
3.43559e-08
-1.57399e-07
3.40757e-08
-1.6577e-07
3.36859e-08
-1.74017e-07
3.31911e-08
-1.82113e-07
3.25952e-08
-1.90034e-07
3.1902e-08
-1.97757e-07
3.11146e-08
-2.05258e-07
3.02358e-08
-2.12517e-07
2.92683e-08
-2.19509e-07
2.82142e-08
-2.26216e-07
2.70756e-08
-2.32616e-07
2.58543e-08
-2.38689e-07
2.45522e-08
-2.44415e-07
2.31708e-08
-2.49776e-07
2.17119e-08
-2.54753e-07
2.01774e-08
-2.59327e-07
1.85691e-08
-2.63482e-07
1.68892e-08
-2.672e-07
1.51401e-08
-2.70466e-07
1.33245e-08
-2.73264e-07
1.14454e-08
-2.7558e-07
9.50647e-09
-2.774e-07
7.51151e-09
-2.78714e-07
5.46504e-09
-2.79509e-07
3.37205e-09
-2.79776e-07
1.2381e-09
-2.79508e-07
-9.3067e-10
-2.78698e-07
-3.12751e-09
-2.77342e-07
-5.34506e-09
-2.75437e-07
-7.57536e-09
-2.72983e-07
-9.80987e-09
-2.69981e-07
-1.20395e-08
-2.66436e-07
-1.42545e-08
-2.62354e-07
-1.64447e-08
-2.57744e-07
-1.85996e-08
-2.52619e-07
-2.0708e-08
-2.46992e-07
-2.27586e-08
-2.40881e-07
-2.47398e-08
-2.34306e-07
-2.66397e-08
-2.2729e-07
-2.84464e-08
-2.19858e-07
-3.0148e-08
-2.12039e-07
-3.17328e-08
-2.03865e-07
-3.31891e-08
-1.95368e-07
-3.45056e-08
-1.86585e-07
-3.56716e-08
-1.77556e-07
-3.66766e-08
-1.68321e-07
-3.75112e-08
-1.58923e-07
-3.81663e-08
-1.49407e-07
-3.86341e-08
-1.3982e-07
-3.89075e-08
-1.30209e-07
-3.89806e-08
-1.20624e-07
-3.88487e-08
-1.11114e-07
-3.85083e-08
-1.01729e-07
-3.79574e-08
-9.25183e-08
-3.71955e-08
-8.35324e-08
-3.62234e-08
-7.48196e-08
-3.5044e-08
-6.64275e-08
-3.36617e-08
-5.84018e-08
-3.20829e-08
-5.07859e-08
-3.03162e-08
-4.36203e-08
-2.83726e-08
-3.69423e-08
-2.62656e-08
-3.07846e-08
-2.40116e-08
-2.51756e-08
-2.16308e-08
-2.01374e-08
-1.91474e-08
-1.5686e-08
-1.65904e-08
-1.18294e-08
-1.39952e-08
-8.5672e-09
-1.14043e-08
-5.88911e-09
-8.86972e-09
-3.77395e-09
-6.45498e-09
-2.18845e-09
-4.23785e-09
-1.08628e-09
-2.31395e-09
-4.06979e-10
-8.00136e-10
-7.5236e-11
1.60863e-10
3.82928e-10
-2.79755e-10
3.18781e-10
-1.14551e-09
1.90884e-09
-2.62228e-09
4.16442e-09
-4.72926e-09
6.86534e-09
-7.47738e-09
9.8443e-09
-1.08685e-08
1.29685e-08
-1.48956e-08
1.61339e-08
-1.95435e-08
1.9261e-08
-2.47896e-08
2.22897e-08
-3.06057e-08
2.51757e-08
-3.69583e-08
2.78874e-08
-4.38104e-08
3.04031e-08
-5.11224e-08
3.27088e-08
-5.88527e-08
3.47968e-08
-6.69588e-08
3.66638e-08
-7.53976e-08
3.83103e-08
-8.41263e-08
3.97394e-08
-9.31025e-08
4.09561e-08
-1.02285e-07
4.19667e-08
-1.11632e-07
4.27786e-08
-1.21105e-07
4.33995e-08
-1.30667e-07
4.38374e-08
-1.40279e-07
4.41002e-08
-1.49907e-07
4.41959e-08
-1.59518e-07
4.4132e-08
-1.69077e-07
4.39154e-08
-1.78555e-07
4.3553e-08
-1.87919e-07
4.30507e-08
-1.97143e-07
4.24142e-08
-2.06196e-07
4.16486e-08
-2.15052e-07
4.07583e-08
-2.23685e-07
3.97476e-08
-2.32069e-07
3.86199e-08
-2.4018e-07
3.73786e-08
-2.47992e-07
3.60266e-08
-2.55483e-07
3.45666e-08
-2.6263e-07
3.30009e-08
-2.69409e-07
3.13319e-08
-2.75801e-07
2.95619e-08
-2.81782e-07
2.76931e-08
-2.87332e-07
2.5728e-08
-2.92432e-07
2.36692e-08
-2.97063e-07
2.15194e-08
-3.01204e-07
1.92819e-08
-3.0484e-07
1.69601e-08
-3.07953e-07
1.45581e-08
-3.10527e-07
1.20805e-08
-3.12547e-07
9.53225e-09
-3.14001e-07
6.91924e-09
-3.14877e-07
4.24783e-09
-3.15164e-07
1.52515e-09
-3.14854e-07
-1.24094e-09
-3.1394e-07
-4.04185e-09
-3.12417e-07
-6.86821e-09
-3.10282e-07
-9.70991e-09
-3.07536e-07
-1.25561e-08
-3.0418e-07
-1.53952e-08
-3.0022e-07
-1.8215e-08
-2.95662e-07
-2.10026e-08
-2.90517e-07
-2.37445e-08
-2.84798e-07
-2.64269e-08
-2.78521e-07
-2.90353e-08
-2.71706e-07
-3.15551e-08
-2.64374e-07
-3.39714e-08
-2.56551e-07
-3.62692e-08
-2.48266e-07
-3.84334e-08
-2.39549e-07
-4.04493e-08
-2.30436e-07
-4.23022e-08
-2.20964e-07
-4.3978e-08
-2.11172e-07
-4.54631e-08
-2.01104e-07
-4.67445e-08
-1.90805e-07
-4.78102e-08
-1.80323e-07
-4.8649e-08
-1.69706e-07
-4.9251e-08
-1.59006e-07
-4.96074e-08
-1.48276e-07
-4.97109e-08
-1.37569e-07
-4.95557e-08
-1.26939e-07
-4.91376e-08
-1.16443e-07
-4.84542e-08
-1.06133e-07
-4.7505e-08
-9.60651e-08
-4.62914e-08
-8.6292e-08
-4.48171e-08
-7.68657e-08
-4.30881e-08
-6.78358e-08
-4.11127e-08
-5.92498e-08
-3.89022e-08
-5.11518e-08
-3.64706e-08
-4.35822e-08
-3.38352e-08
-3.65768e-08
-3.1017e-08
-3.01663e-08
-2.80414e-08
-2.43753e-08
-2.49384e-08
-1.92215e-08
-2.17442e-08
-1.47151e-08
-1.85016e-08
-1.08574e-08
-1.52619e-08
-7.64064e-09
-1.20865e-08
-5.04647e-09
-9.04916e-09
-3.0458e-09
-6.23852e-09
-1.59818e-09
-3.76156e-09
-6.51675e-10
-1.74665e-09
-1.4322e-10
-3.47593e-10
2.39711e-10
-3.59968e-10
6.78746e-10
-1.43796e-09
2.98683e-09
-3.23595e-09
5.96242e-09
-5.75481e-09
9.3842e-09
-8.99102e-09
1.30805e-08
-1.29352e-08
1.69127e-08
-1.75716e-08
2.07704e-08
-2.28782e-08
2.45676e-08
-2.88272e-08
2.82386e-08
-3.53857e-08
3.17342e-08
-4.25166e-08
3.50184e-08
-5.01798e-08
3.80663e-08
-5.83324e-08
4.08614e-08
-6.69299e-08
4.33944e-08
-7.59271e-08
4.5661e-08
-8.52781e-08
4.76613e-08
-9.49371e-08
4.93984e-08
-1.04859e-07
5.08778e-08
-1.14999e-07
5.21068e-08
-1.25314e-07
5.30935e-08
-1.35761e-07
5.38469e-08
-1.463e-07
5.43763e-08
-1.56891e-07
5.46911e-08
-1.67496e-07
5.48005e-08
-1.78077e-07
5.47133e-08
-1.886e-07
5.44381e-08
-1.99029e-07
5.39827e-08
-2.09333e-07
5.33545e-08
-2.19479e-07
5.25603e-08
-2.29437e-07
5.16061e-08
-2.39176e-07
5.04975e-08
-2.48668e-07
4.92396e-08
-2.57885e-07
4.78367e-08
-2.66799e-07
4.6293e-08
-2.75384e-07
4.46121e-08
-2.83615e-07
4.27973e-08
-2.91466e-07
4.08517e-08
-2.98912e-07
3.87783e-08
-3.0593e-07
3.658e-08
-3.12497e-07
3.42597e-08
-3.18589e-07
3.18205e-08
-3.24186e-07
2.92657e-08
-3.29265e-07
2.65989e-08
-3.33808e-07
2.38241e-08
-3.37793e-07
2.09458e-08
-3.41204e-07
1.79691e-08
-3.44023e-07
1.48996e-08
-3.46235e-07
1.17437e-08
-3.47824e-07
8.50867e-09
-3.48779e-07
5.20239e-09
-3.49087e-07
1.83373e-09
-3.48741e-07
-1.58761e-09
-3.47732e-07
-5.05098e-09
-3.46055e-07
-8.54483e-09
-3.43708e-07
-1.20567e-08
-3.40691e-07
-1.55733e-08
-3.37006e-07
-1.90803e-08
-3.32658e-07
-2.25627e-08
-3.27656e-07
-2.60047e-08
-3.22011e-07
-2.93898e-08
-3.15737e-07
-3.2701e-08
-3.08852e-07
-3.59206e-08
-3.01376e-07
-3.90307e-08
-2.93334e-07
-4.2013e-08
-2.84754e-07
-4.48492e-08
-2.75667e-07
-4.75209e-08
-2.66106e-07
-5.001e-08
-2.5611e-07
-5.22987e-08
-2.45718e-07
-5.43697e-08
-2.34975e-07
-5.62063e-08
-2.23927e-07
-5.77928e-08
-2.12622e-07
-5.91146e-08
-2.01113e-07
-6.0158e-08
-1.89453e-07
-6.0911e-08
-1.77698e-07
-6.13629e-08
-1.65904e-07
-6.1505e-08
-1.54129e-07
-6.13302e-08
-1.42433e-07
-6.08336e-08
-1.30875e-07
-6.00124e-08
-1.19513e-07
-5.88663e-08
-1.08408e-07
-5.73971e-08
-9.7615e-08
-5.56098e-08
-8.71913e-08
-5.35118e-08
-7.71902e-08
-5.11138e-08
-6.76628e-08
-4.84296e-08
-5.86566e-08
-4.54768e-08
-5.0215e-08
-4.22767e-08
-4.23769e-08
-3.88551e-08
-3.51755e-08
-3.52428e-08
-2.86379e-08
-3.1476e-08
-2.27843e-08
-2.75978e-08
-1.76272e-08
-2.36587e-08
-1.31707e-08
-1.97184e-08
-9.40993e-09
-1.58473e-08
-6.33069e-09
-1.21284e-08
-3.90902e-09
-8.66019e-09
-2.11137e-09
-5.55921e-09
-8.95141e-10
-2.96288e-09
-2.09885e-10
-1.03285e-09
2.98265e-11
-4.37139e-10
1.11589e-09
-1.72228e-09
4.27197e-09
-3.83642e-09
8.07655e-09
-6.76284e-09
1.23106e-08
-1.04835e-08
1.68012e-08
-1.49775e-08
2.14066e-08
-2.02194e-08
2.60123e-08
-2.61798e-08
3.0528e-08
-3.28246e-08
3.48835e-08
-4.01162e-08
3.90257e-08
-4.80132e-08
4.29154e-08
-5.64718e-08
4.65248e-08
-6.54459e-08
4.98356e-08
-7.48883e-08
5.28367e-08
-8.47507e-08
5.55234e-08
-9.49846e-08
5.78951e-08
-1.05542e-07
5.99553e-08
-1.16374e-07
6.171e-08
-1.27434e-07
6.3167e-08
-1.38676e-07
6.43357e-08
-1.50055e-07
6.52262e-08
-1.61528e-07
6.58491e-08
-1.73052e-07
6.62152e-08
-1.84587e-07
6.6335e-08
-1.96092e-07
6.62189e-08
-2.07531e-07
6.58766e-08
-2.18866e-07
6.53174e-08
-2.30061e-07
6.45499e-08
-2.41083e-07
6.35821e-08
-2.51898e-07
6.24212e-08
-2.62474e-07
6.10739e-08
-2.72781e-07
5.9546e-08
-2.82787e-07
5.78429e-08
-2.92464e-07
5.59696e-08
-3.01782e-07
5.39305e-08
-3.10714e-07
5.17295e-08
-3.19233e-07
4.93706e-08
-3.27312e-07
4.68573e-08
-3.34926e-07
4.41934e-08
-3.42048e-07
4.13824e-08
-3.48656e-07
3.84281e-08
-3.54725e-07
3.53347e-08
-3.60233e-07
3.21066e-08
-3.65157e-07
2.87487e-08
-3.69478e-07
2.52666e-08
-3.73175e-07
2.16664e-08
-3.76231e-07
1.79551e-08
-3.78628e-07
1.41404e-08
-3.8035e-07
1.02311e-08
-3.81384e-07
6.23686e-09
-3.81719e-07
2.16829e-09
-3.81344e-07
-1.96285e-09
-3.80251e-07
-6.14374e-09
-3.78435e-07
-1.03605e-08
-3.75894e-07
-1.45981e-08
-3.72627e-07
-1.88405e-08
-3.68636e-07
-2.30707e-08
-3.63928e-07
-2.72706e-08
-3.58512e-07
-3.14213e-08
-3.52398e-07
-3.5503e-08
-3.45604e-07
-3.94952e-08
-3.38148e-07
-4.3377e-08
-3.30052e-07
-4.71268e-08
-3.21342e-07
-5.07227e-08
-3.12048e-07
-5.41429e-08
-3.02204e-07
-5.73654e-08
-2.91845e-07
-6.03686e-08
-2.81013e-07
-6.31312e-08
-2.6975e-07
-6.56324e-08
-2.58103e-07
-6.78526e-08
-2.46123e-07
-6.97729e-08
-2.33862e-07
-7.13757e-08
-2.21375e-07
-7.26451e-08
-2.0872e-07
-7.35665e-08
-1.95955e-07
-7.41275e-08
-1.83143e-07
-7.43175e-08
-1.70344e-07
-7.41283e-08
-1.57624e-07
-7.35543e-08
-1.45044e-07
-7.25922e-08
-1.32668e-07
-7.12418e-08
-1.2056e-07
-6.95058e-08
-1.08779e-07
-6.73901e-08
-9.73873e-08
-6.49039e-08
-8.64408e-08
-6.20603e-08
-7.59944e-08
-5.88761e-08
-6.60989e-08
-5.53723e-08
-5.68011e-08
-5.15745e-08
-4.81427e-08
-4.75136e-08
-4.01597e-08
-4.32257e-08
-3.2882e-08
-3.87537e-08
-2.63326e-08
-3.41472e-08
-2.05269e-08
-2.94644e-08
-1.54723e-08
-2.47731e-08
-1.11677e-08
-2.01519e-08
-7.60338e-09
-1.56927e-08
-4.76134e-09
-1.15022e-08
-2.61538e-09
-7.70518e-09
-1.13237e-09
-4.44589e-09
-2.73974e-10
-1.89125e-09
-2.44148e-10
-5.10948e-10
1.62684e-09
-1.99661e-09
5.75763e-09
-4.41912e-09
1.04991e-08
-7.74523e-09
1.56367e-08
-1.19429e-08
2.09989e-08
-1.69791e-08
2.64428e-08
-2.28191e-08
3.18522e-08
-2.94251e-08
3.7134e-08
-3.67566e-08
4.2215e-08
-4.47704e-08
4.70395e-08
-5.34205e-08
5.15656e-08
-6.26593e-08
5.57636e-08
-7.24373e-08
5.96135e-08
-8.2704e-08
6.31034e-08
-9.34084e-08
6.62278e-08
-1.04499e-07
6.8986e-08
-1.15926e-07
7.13819e-08
-1.27638e-07
7.34217e-08
-1.39585e-07
7.51144e-08
-1.5172e-07
7.64703e-08
-1.63994e-07
7.75008e-08
-1.76363e-07
7.82177e-08
-1.88781e-07
7.86332e-08
-2.01205e-07
7.87593e-08
-2.13594e-07
7.86077e-08
-2.25907e-07
7.81896e-08
-2.38105e-07
7.75157e-08
-2.50151e-07
7.65958e-08
-2.62008e-07
7.54391e-08
-2.73641e-07
7.40539e-08
-2.85015e-07
7.24481e-08
-2.96098e-07
7.06285e-08
-3.06856e-07
6.86015e-08
-3.17259e-07
6.63728e-08
-3.27276e-07
6.39476e-08
-3.36878e-07
6.13309e-08
-3.46034e-07
5.85271e-08
-3.54718e-07
5.55407e-08
-3.629e-07
5.2376e-08
-3.70555e-07
4.90375e-08
-3.77657e-07
4.55297e-08
-3.8418e-07
4.18575e-08
-3.901e-07
3.80265e-08
-3.95393e-07
3.40424e-08
-4.00039e-07
2.99119e-08
-4.04015e-07
2.56424e-08
-4.07302e-07
2.12422e-08
-4.09882e-07
1.67205e-08
-4.11738e-07
1.20877e-08
-4.12857e-07
7.3553e-09
-4.13224e-07
2.53584e-09
-4.1283e-07
-2.35677e-09
-4.11667e-07
-7.30739e-09
-4.09728e-07
-1.22996e-08
-4.0701e-07
-1.73158e-08
-4.03513e-07
-2.2337e-08
-3.99241e-07
-2.73431e-08
-3.94199e-07
-3.2313e-08
-3.88396e-07
-3.72243e-08
-3.81845e-07
-4.20538e-08
-3.74563e-07
-4.67775e-08
-3.66569e-07
-5.13706e-08
-3.57888e-07
-5.58079e-08
-3.48547e-07
-6.00637e-08
-3.38578e-07
-6.41123e-08
-3.28015e-07
-6.7928e-08
-3.16898e-07
-7.14854e-08
-3.0527e-07
-7.47593e-08
-2.93177e-07
-7.77258e-08
-2.80668e-07
-8.03614e-08
-2.67797e-07
-8.26442e-08
-2.54619e-07
-8.45536e-08
-2.41193e-07
-8.60708e-08
-2.2758e-07
-8.71791e-08
-2.13844e-07
-8.78636e-08
-2.0005e-07
-8.81123e-08
-1.86262e-07
-8.79156e-08
-1.7255e-07
-8.72669e-08
-1.58979e-07
-8.61628e-08
-1.45618e-07
-8.4603e-08
-1.32533e-07
-8.2591e-08
-1.19789e-07
-8.01338e-08
-1.0745e-07
-7.72427e-08
-9.55776e-08
-7.3933e-08
-8.4229e-08
-7.02247e-08
-7.34586e-08
-6.61426e-08
-6.33165e-08
-6.17167e-08
-5.38475e-08
-5.69826e-08
-4.50907e-08
-5.19825e-08
-3.70792e-08
-4.67652e-08
-2.98389e-08
-4.13874e-08
-2.33887e-08
-3.59147e-08
-1.77395e-08
-3.04222e-08
-1.28948e-08
-2.49967e-08
-8.8497e-09
-1.97377e-08
-5.59233e-09
-1.47596e-08
-3.10395e-09
-1.01936e-08
-1.36055e-09
-6.18929e-09
-3.34868e-10
-2.91693e-09
-5.79015e-10
-5.81351e-10
2.20819e-09
-2.26018e-09
7.43647e-09
-4.98175e-09
1.32206e-08
-8.69746e-09
1.93524e-08
-1.33618e-08
2.56632e-08
-1.89302e-08
3.20113e-08
-2.5358e-08
3.828e-08
-3.25992e-08
4.43751e-08
-4.06063e-08
5.02221e-08
-4.93301e-08
5.57633e-08
-5.872e-08
6.09555e-08
-6.87239e-08
6.57675e-08
-7.92887e-08
7.01784e-08
-9.03608e-08
7.41755e-08
-1.01886e-07
7.77532e-08
-1.13811e-07
8.09109e-08
-1.26082e-07
8.36528e-08
-1.38646e-07
8.5986e-08
-1.51452e-07
8.79202e-08
-1.64449e-07
8.94669e-08
-1.77587e-07
9.06388e-08
-1.90818e-07
9.1449e-08
-2.04096e-07
9.19111e-08
-2.17375e-07
9.20386e-08
-2.30612e-07
9.18446e-08
-2.43764e-07
9.13417e-08
-2.5679e-07
9.0542e-08
-2.69651e-07
8.94566e-08
-2.82308e-07
8.8096e-08
-2.94724e-07
8.64697e-08
-3.06862e-07
8.45866e-08
-3.18688e-07
8.24546e-08
-3.30168e-07
8.0081e-08
-3.41267e-07
7.74725e-08
-3.51955e-07
7.46352e-08
-3.62199e-07
7.15747e-08
-3.71968e-07
6.82964e-08
-3.81233e-07
6.48055e-08
-3.89964e-07
6.1107e-08
-3.98133e-07
5.72063e-08
-4.05712e-07
5.31088e-08
-4.12675e-07
4.88203e-08
-4.18995e-07
4.43471e-08
-4.24649e-07
3.96962e-08
-4.29613e-07
3.48754e-08
-4.33864e-07
2.98934e-08
-4.37381e-07
2.47599e-08
-4.40147e-07
1.94857e-08
-4.42142e-07
1.40828e-08
-4.43351e-07
8.56463e-09
-4.43761e-07
2.94587e-09
-4.4336e-07
-2.75734e-09
-4.4214e-07
-8.52743e-09
-4.40095e-07
-1.43454e-08
-4.3722e-07
-2.01906e-08
-4.33515e-07
-2.60414e-08
-4.28984e-07
-3.18742e-08
-4.23633e-07
-3.76646e-08