/*--------------------------------*- C++ -*----------------------------------*\
| =========                 |                                                 |
| \\      /  F ield         | OpenFOAM: The Open Source CFD Toolbox           |
|  \\    /   O peration     | Version:  2512                                  |
|   \\  /    A nd           | Website:  www.openfoam.com                      |
|    \\/     M anipulation  |                                                 |
\*---------------------------------------------------------------------------*/
FoamFile
{
    version     2.0;
    format      ascii;
    arch        "LSB;label=32;scalar=64";
    class       volVectorField;
    location    "0.22";
    object      U;
}
// * * * * * * * * * * * * * * * * * * * * * * * * * * * * * * * * * * * * * //

dimensions      [0 1 -1 0 0 0 0];

internalField   nonuniform List<vector> 
10000
(
(2.65882e-06 -3.27124e-06 0)
(1.19151e-05 -6.02956e-06 0)
(2.30262e-05 -5.4531e-06 0)
(3.05735e-05 -3.4829e-06 0)
(3.10691e-05 -8.72475e-07 0)
(2.36195e-05 1.91702e-06 0)
(7.93515e-06 4.65979e-06 0)
(-1.58526e-05 7.25242e-06 0)
(-4.73786e-05 9.65103e-06 0)
(-8.61334e-05 1.18391e-05 0)
(-0.000131542 1.38135e-05 0)
(-0.000183002 1.55756e-05 0)
(-0.000239908 1.71337e-05 0)
(-0.000301666 1.84998e-05 0)
(-0.000367699 1.96872e-05 0)
(-0.000437456 2.07073e-05 0)
(-0.000510414 2.15683e-05 0)
(-0.000586079 2.22815e-05 0)
(-0.000663987 2.28618e-05 0)
(-0.000743705 2.3319e-05 0)
(-0.000824824 2.36594e-05 0)
(-0.000906965 2.38906e-05 0)
(-0.000989774 2.40214e-05 0)
(-0.00107292 2.40613e-05 0)
(-0.00115608 2.40184e-05 0)
(-0.00123898 2.38965e-05 0)
(-0.00132134 2.36974e-05 0)
(-0.00140289 2.3425e-05 0)
(-0.00148339 2.3085e-05 0)
(-0.0015626 2.26817e-05 0)
(-0.0016403 2.2217e-05 0)
(-0.00171627 2.16922e-05 0)
(-0.00179029 2.11092e-05 0)
(-0.00186217 2.04694e-05 0)
(-0.00193169 1.97731e-05 0)
(-0.00199867 1.90202e-05 0)
(-0.0020629 1.82112e-05 0)
(-0.00212419 1.7347e-05 0)
(-0.00218236 1.64286e-05 0)
(-0.0022372 1.54565e-05 0)
(-0.00228853 1.44304e-05 0)
(-0.00233618 1.33501e-05 0)
(-0.00237995 1.22158e-05 0)
(-0.00241967 1.10282e-05 0)
(-0.00245515 9.78877e-06 0)
(-0.00248624 8.4995e-06 0)
(-0.00251277 7.1623e-06 0)
(-0.00253457 5.77907e-06 0)
(-0.00255151 4.35169e-06 0)
(-0.00256344 2.88272e-06 0)
(-0.00257024 1.37614e-06 0)
(-0.00257179 -1.63375e-07 0)
(-0.00256801 -1.7311e-06 0)
(-0.0025588 -3.32203e-06 0)
(-0.00254411 -4.9308e-06 0)
(-0.00252389 -6.55132e-06 0)
(-0.00249813 -8.17644e-06 0)
(-0.00246684 -9.79854e-06 0)
(-0.00243004 -1.14098e-05 0)
(-0.00238779 -1.30018e-05 0)
(-0.00234019 -1.45658e-05 0)
(-0.00228734 -1.60927e-05 0)
(-0.0022294 -1.7573e-05 0)
(-0.00216655 -1.89972e-05 0)
(-0.00209899 -2.03555e-05 0)
(-0.00202697 -2.16381e-05 0)
(-0.00195076 -2.28349e-05 0)
(-0.00187068 -2.39359e-05 0)
(-0.00178707 -2.49317e-05 0)
(-0.0017003 -2.58129e-05 0)
(-0.00161076 -2.65708e-05 0)
(-0.0015189 -2.71969e-05 0)
(-0.00142515 -2.76837e-05 0)
(-0.00133001 -2.80238e-05 0)
(-0.00123397 -2.82108e-05 0)
(-0.00113755 -2.82393e-05 0)
(-0.0010413 -2.81044e-05 0)
(-0.000945754 -2.78023e-05 0)
(-0.000851481 -2.73301e-05 0)
(-0.000759047 -2.6686e-05 0)
(-0.000669025 -2.58688e-05 0)
(-0.000581984 -2.48782e-05 0)
(-0.000498492 -2.37153e-05 0)
(-0.000419108 -2.23822e-05 0)
(-0.000344381 -2.08821e-05 0)
(-0.000274841 -1.92192e-05 0)
(-0.000210999 -1.73984e-05 0)
(-0.000153339 -1.54264e-05 0)
(-0.000102309 -1.33117e-05 0)
(-5.83185e-05 -1.10646e-05 0)
(-2.17195e-05 -8.69936e-06 0)
(7.20665e-06 -6.236e-06 0)
(2.82769e-05 -3.70466e-06 0)
(4.14473e-05 -1.15365e-06 0)
(4.68818e-05 1.33464e-06 0)
(4.50628e-05 3.61766e-06 0)
(3.69501e-05 5.44303e-06 0)
(2.43161e-05 6.34816e-06 0)
(1.07458e-05 5.52538e-06 0)
(2.1672e-06 2.17203e-06 0)
(5.21535e-06 -1.17427e-05 0)
(1.9041e-05 -1.99553e-05 0)
(3.24165e-05 -1.58279e-05 0)
(3.50393e-05 -5.16794e-06 0)
(2.10411e-05 8.88881e-06 0)
(-1.22934e-05 2.4376e-05 0)
(-6.61289e-05 4.01368e-05 0)
(-0.000140592 5.54882e-05 0)
(-0.000235115 7.00506e-05 0)
(-0.000348693 8.36132e-05 0)
(-0.000480057 9.60683e-05 0)
(-0.000627788 0.000107368 0)
(-0.000790399 0.000117506 0)
(-0.000966384 0.000126509 0)
(-0.00115425 0.000134415 0)
(-0.00135254 0.00014127 0)
(-0.00155986 0.000147128 0)
(-0.00177486 0.000152041 0)
(-0.00199627 0.00015607 0)
(-0.00222288 0.00015927 0)
(-0.00245356 0.000161692 0)
(-0.00268723 0.000163384 0)
(-0.00292289 0.000164392 0)
(-0.00315958 0.000164762 0)
(-0.00339641 0.000164534 0)
(-0.00363254 0.000163742 0)
(-0.00386716 0.000162416 0)
(-0.00409952 0.000160584 0)
(-0.00432891 0.000158269 0)
(-0.00455462 0.000155494 0)
(-0.004776 0.000152277 0)
(-0.0049924 0.00014863 0)
(-0.00520322 0.000144568 0)
(-0.00540785 0.0001401 0)
(-0.0056057 0.000135233 0)
(-0.00579619 0.000129974 0)
(-0.00597877 0.000124328 0)
(-0.00615288 0.000118301 0)
(-0.00631796 0.000111895 0)
(-0.00647348 0.000105117 0)
(-0.00661891 9.79694e-05 0)
(-0.00675372 9.04582e-05 0)
(-0.0068774 8.25897e-05 0)
(-0.00698945 7.43713e-05 0)
(-0.00708937 6.58119e-05 0)
(-0.0071767 5.69228e-05 0)
(-0.00725099 4.77178e-05 0)
(-0.00731181 3.82137e-05 0)
(-0.00735875 2.84296e-05 0)
(-0.00739144 1.8387e-05 0)
(-0.00740954 8.1111e-06 0)
(-0.00741275 -2.36923e-06 0)
(-0.00740082 -1.30221e-05 0)
(-0.00737355 -2.38123e-05 0)
(-0.00733077 -3.47007e-05 0)
(-0.0072724 -4.5645e-05 0)
(-0.00719841 -5.6599e-05 0)
(-0.00710882 -6.75131e-05 0)
(-0.00700375 -7.83353e-05 0)
(-0.00688337 -8.90109e-05 0)
(-0.00674795 -9.94826e-05 0)
(-0.00659784 -0.000109691 0)
(-0.00643346 -0.000119574 0)
(-0.00625532 -0.000129069 0)
(-0.00606404 -0.000138113 0)
(-0.0058603 -0.000146641 0)
(-0.00564488 -0.000154591 0)
(-0.00541865 -0.000161899 0)
(-0.00518257 -0.000168504 0)
(-0.00493767 -0.000174346 0)
(-0.00468509 -0.000179369 0)
(-0.004426 -0.00018352 0)
(-0.00416168 -0.000186749 0)
(-0.00389345 -0.000189012 0)
(-0.00362272 -0.000190267 0)
(-0.00335091 -0.00019048 0)
(-0.00307953 -0.000189622 0)
(-0.00281007 -0.00018767 0)
(-0.0025441 -0.000184606 0)
(-0.00228318 -0.000180422 0)
(-0.00202887 -0.000175113 0)
(-0.00178274 -0.000168686 0)
(-0.00154634 -0.000161151 0)
(-0.00132119 -0.00015253 0)
(-0.00110877 -0.000142851 0)
(-0.0009105 -0.000132153 0)
(-0.000727745 -0.000120486 0)
(-0.000561764 -0.000107912 0)
(-0.000413708 -9.45099e-05 0)
(-0.000284586 -8.03807e-05 0)
(-0.000175223 -6.5656e-05 0)
(-8.62101e-05 -5.05118e-05 0)
(-1.78268e-05 -3.51908e-05 0)
(3.00627e-05 -2.00412e-05 0)
(5.81702e-05 -5.57691e-06 0)
(6.80072e-05 7.42534e-06 0)
(6.21415e-05 1.77775e-05 0)
(4.4614e-05 2.36476e-05 0)
(2.227e-05 2.23073e-05 0)
(5.49631e-06 1.07298e-05 0)
(5.18708e-06 -2.27496e-05 0)
(1.54896e-05 -3.28877e-05 0)
(1.87128e-05 -1.91e-05 0)
(4.00074e-06 9.13099e-06 0)
(-3.54847e-05 4.55243e-05 0)
(-0.000103396 8.58784e-05 0)
(-0.000201484 0.000127437 0)
(-0.000330129 0.000168442 0)
(-0.000488746 0.000207785 0)
(-0.000676084 0.00024479 0)
(-0.000890447 0.000279063 0)
(-0.00112987 0.000310397 0)
(-0.00139222 0.000338706 0)
(-0.0016753 0.000363992 0)
(-0.00197691 0.000386318 0)
(-0.00229486 0.000405776 0)
(-0.00262701 0.000422481 0)
(-0.00297131 0.000436564 0)
(-0.00332579 0.000448164 0)
(-0.00368856 0.000457418 0)
(-0.00405785 0.000464462 0)
(-0.00443195 0.000469424 0)
(-0.00480926 0.000472427 0)
(-0.00518827 0.000473586 0)
(-0.00556754 0.00047301 0)
(-0.00594571 0.000470794 0)
(-0.00632149 0.000467024 0)
(-0.00669367 0.000461777 0)
(-0.00706106 0.000455122 0)
(-0.00742255 0.000447119 0)
(-0.00777706 0.000437818 0)
(-0.00812355 0.000427263 0)
(-0.00846102 0.000415491 0)
(-0.00878849 0.000402532 0)
(-0.00910502 0.000388413 0)
(-0.00940966 0.000373155 0)
(-0.00970151 0.000356777 0)
(-0.00997968 0.000339296 0)
(-0.0102433 0.000320727 0)
(-0.0104914 0.000301085 0)
(-0.0107233 0.000280386 0)
(-0.0109381 0.00025865 0)
(-0.0111349 0.000235898 0)
(-0.0113131 0.000212155 0)
(-0.0114717 0.000187451 0)
(-0.0116101 0.000161821 0)
(-0.0117276 0.000135306 0)
(-0.0118235 0.000107955 0)
(-0.0118971 7.98269e-05 0)
(-0.0119479 5.09854e-05 0)
(-0.0119755 2.15042e-05 0)
(-0.0119792 -8.53354e-06 0)
(-0.0119588 -3.90354e-05 0)
(-0.011914 -6.98999e-05 0)
(-0.0118444 -0.000101015 0)
(-0.0117501 -0.000132261 0)
(-0.0116309 -0.000163505 0)
(-0.011487 -0.00019461 0)
(-0.0113184 -0.000225427 0)
(-0.0111257 -0.000255803 0)
(-0.0109091 -0.000285575 0)
(-0.0106692 -0.000314576 0)
(-0.0104068 -0.000342635 0)
(-0.0101226 -0.000369575 0)
(-0.00981766 -0.00039522 0)
(-0.00949303 -0.000419391 0)
(-0.00914997 -0.00044191 0)
(-0.00878985 -0.000462604 0)
(-0.00841418 -0.000481301 0)
(-0.00802461 -0.000497838 0)
(-0.0076229 -0.000512057 0)
(-0.00721093 -0.00052381 0)
(-0.00679068 -0.000532961 0)
(-0.00636425 -0.000539385 0)
(-0.00593383 -0.000542972 0)
(-0.00550165 -0.000543626 0)
(-0.00507006 -0.000541268 0)
(-0.00464142 -0.000535836 0)
(-0.00421816 -0.000527288 0)
(-0.0038027 -0.000515601 0)
(-0.00339748 -0.000500772 0)
(-0.00300494 -0.00048282 0)
(-0.00262747 -0.000461789 0)
(-0.00226742 -0.000437747 0)
(-0.00192705 -0.000410788 0)
(-0.00160856 -0.000381037 0)
(-0.00131398 -0.000348653 0)
(-0.00104521 -0.000313839 0)
(-0.000803953 -0.000276846 0)
(-0.000591656 -0.000237996 0)
(-0.000409468 -0.000197701 0)
(-0.000258147 -0.000156498 0)
(-0.00013796 -0.000115106 0)
(-4.85377e-05 -7.45028e-05 0)
(1.13191e-05 -3.60464e-05 0)
(4.38877e-05 -1.64783e-06 0)
(5.27747e-05 2.5994e-05 0)
(4.3262e-05 4.3115e-05 0)
(2.36486e-05 4.46374e-05 0)
(6.30755e-06 2.42439e-05 0)
(3.40923e-06 -2.99111e-05 0)
(5.15099e-06 -3.52674e-05 0)
(-9.24129e-06 -4.32531e-06 0)
(-4.94826e-05 4.9318e-05 0)
(-0.000122161 0.00011641 0)
(-0.00023116 0.00019045 0)
(-0.000378426 0.000266935 0)
(-0.00056443 0.000342809 0)
(-0.000788545 0.00041604 0)
(-0.00104934 0.00048532 0)
(-0.00134484 0.00054983 0)
(-0.00167268 0.000609094 0)
(-0.00203027 0.00066288 0)
(-0.00241488 0.000711123 0)
(-0.00282372 0.000753872 0)
(-0.00325404 0.000791258 0)
(-0.0037031 0.00082346 0)
(-0.00416824 0.000850692 0)
(-0.00464689 0.000873187 0)
(-0.00513658 0.000891184 0)
(-0.00563496 0.000904924 0)
(-0.00613978 0.000914639 0)
(-0.0066489 0.000920556 0)
(-0.0071603 0.000922885 0)
(-0.00767205 0.00092182 0)
(-0.0081823 0.000917544 0)
(-0.00868933 0.000910218 0)
(-0.00919146 0.000899992 0)
(-0.0096871 0.000886994 0)
(-0.0101747 0.000871341 0)
(-0.0106529 0.000853131 0)
(-0.0111202 0.000832451 0)
(-0.0115752 0.000809374 0)
(-0.0120166 0.000783962 0)
(-0.0124431 0.00075627 0)
(-0.0128535 0.000726344 0)
(-0.0132465 0.000694225 0)
(-0.0136209 0.000659949 0)
(-0.0139755 0.000623552 0)
(-0.0143091 0.000585067 0)
(-0.0146207 0.000544531 0)
(-0.014909 0.000501986 0)
(-0.0151731 0.000457478 0)
(-0.0154118 0.000411059 0)
(-0.0156241 0.000362794 0)
(-0.0158091 0.000312752 0)
(-0.0159658 0.000261021 0)
(-0.0160933 0.000207698 0)
(-0.0161909 0.000152896 0)
(-0.0162577 9.67461e-05 0)
(-0.0162932 3.93923e-05 0)
(-0.0162966 -1.90028e-05 0)
(-0.0162676 -7.82588e-05 0)
(-0.0162058 -0.000138177 0)
(-0.0161108 -0.000198542 0)
(-0.0159826 -0.000259118 0)
(-0.0158211 -0.000319655 0)
(-0.0156264 -0.000379884 0)
(-0.0153989 -0.000439522 0)
(-0.0151389 -0.000498273 0)
(-0.0148471 -0.000555826 0)
(-0.0145242 -0.000611861 0)
(-0.0141712 -0.000666049 0)
(-0.0137892 -0.000718056 0)
(-0.0133795 -0.000767543 0)
(-0.0129435 -0.000814171 0)
(-0.012483 -0.000857602 0)
(-0.0119998 -0.000897505 0)
(-0.0114958 -0.000933555 0)
(-0.0109733 -0.00096544 0)
(-0.0104346 -0.000992864 0)
(-0.00988219 -0.00101554 0)
(-0.00931873 -0.00103322 0)
(-0.00874698 -0.00104567 0)
(-0.00816982 -0.00105267 0)
(-0.00759023 -0.00105405 0)
(-0.00701128 -0.00104966 0)
(-0.0064361 -0.00103938 0)
(-0.00586786 -0.00102315 0)
(-0.00530977 -0.00100092 0)
(-0.00476504 -0.000972703 0)
(-0.00423683 -0.00093854 0)
(-0.00372828 -0.00089853 0)
(-0.00324244 -0.000852814 0)
(-0.00278227 -0.000801594 0)
(-0.00235057 -0.00074513 0)
(-0.00194997 -0.000683753 0)
(-0.00158287 -0.00061788 0)
(-0.0012514 -0.000548029 0)
(-0.000957367 -0.000474852 0)
(-0.000702138 -0.000399174 0)
(-0.000486582 -0.00032205 0)
(-0.000310934 -0.000244851 0)
(-0.000174645 -0.000169382 0)
(-7.61877e-05 -9.80521e-05 0)
(-1.2828e-05 -3.40994e-05 0)
(1.95994e-05 1.81124e-05 0)
(2.6982e-05 5.2787e-05 0)
(1.80669e-05 6.23833e-05 0)
(5.43476e-06 3.68748e-05 0)
(9.34014e-07 -3.05801e-05 0)
(-8.69849e-06 -2.12381e-05 0)
(-4.55635e-05 3.53077e-05 0)
(-0.000116852 0.000122098 0)
(-0.000228098 0.000227336 0)
(-0.000382921 0.00034242 0)
(-0.000583121 0.000461155 0)
(-0.000829047 0.00057918 0)
(-0.00111993 0.000693478 0)
(-0.00145416 0.000802013 0)
(-0.00182952 0.000903454 0)
(-0.00224333 0.000996986 0)
(-0.00269263 0.00108217 0)
(-0.00317428 0.00115881 0)
(-0.00368505 0.00122693 0)
(-0.0042217 0.00128666 0)
(-0.00478099 0.00133824 0)
(-0.00535976 0.00138196 0)
(-0.00595494 0.00141816 0)
(-0.00656354 0.00144718 0)
(-0.00718273 0.00146937 0)
(-0.00780976 0.00148509 0)
(-0.00844203 0.00149468 0)
(-0.00907703 0.00149847 0)
(-0.00971239 0.00149675 0)
(-0.0103459 0.0014898 0)
(-0.0109752 0.00147789 0)
(-0.0115985 0.00146124 0)
(-0.0122136 0.00144006 0)
(-0.0128188 0.00141454 0)
(-0.013412 0.00138484 0)
(-0.0139917 0.0013511 0)
(-0.014556 0.00131343 0)
(-0.0151034 0.00127195 0)
(-0.0156321 0.00122674 0)
(-0.0161407 0.00117789 0)
(-0.0166275 0.00112547 0)
(-0.0170911 0.00106954 0)
(-0.01753 0.00101016 0)
(-0.0179428 0.000947406 0)
(-0.018328 0.000881333 0)
(-0.0186843 0.000812015 0)
(-0.0190103 0.000739534 0)
(-0.0193048 0.000663982 0)
(-0.0195665 0.000585466 0)
(-0.0197941 0.000504111 0)
(-0.0199866 0.000420058 0)
(-0.020143 0.000333471 0)
(-0.0202621 0.000244539 0)
(-0.0203432 0.000153472 0)
(-0.0203854 6.05097e-05 0)
(-0.020388 -3.40831e-05 0)
(-0.0203504 -0.000130013 0)
(-0.0202723 -0.00022696 0)
(-0.0201532 -0.000324573 0)
(-0.0199931 -0.000422474 0)
(-0.0197919 -0.00052026 0)
(-0.0195499 -0.000617499 0)
(-0.0192674 -0.000713739 0)
(-0.018945 -0.000808502 0)
(-0.0185834 -0.000901294 0)
(-0.0181835 -0.000991604 0)
(-0.0177466 -0.00107891 0)
(-0.0172741 -0.00116267 0)
(-0.0167675 -0.00124235 0)
(-0.0162287 -0.00131741 0)
(-0.0156597 -0.00138731 0)
(-0.0150627 -0.00145153 0)
(-0.0144404 -0.00150955 0)
(-0.0137952 -0.00156088 0)
(-0.0131301 -0.00160504 0)
(-0.0124481 -0.0016416 0)
(-0.0117525 -0.00167014 0)
(-0.0110466 -0.00169029 0)
(-0.0103339 -0.00170173 0)
(-0.00961805 -0.00170418 0)
(-0.00890279 -0.00169741 0)
(-0.00819191 -0.00168124 0)
(-0.00748926 -0.00165557 0)
(-0.00679871 -0.00162034 0)
(-0.00612414 -0.00157558 0)
(-0.00546938 -0.00152137 0)
(-0.00483819 -0.00145788 0)
(-0.00423426 -0.00138537 0)
(-0.00366109 -0.00130418 0)
(-0.00312203 -0.00121475 0)
(-0.0026202 -0.00111764 0)
(-0.00215843 -0.00101356 0)
(-0.0017392 -0.000903357 0)
(-0.00136458 -0.000788121 0)
(-0.00103615 -0.000669187 0)
(-0.000754852 -0.000548238 0)
(-0.000520932 -0.000427412 0)
(-0.000333749 -0.000309448 0)
(-0.000191619 -0.000197887 0)
(-9.16186e-05 -9.73373e-05 0)
(-2.93857e-05 -1.38026e-05 0)
(1.12966e-06 4.49762e-05 0)
(8.37382e-06 6.91091e-05 0)
(3.71079e-06 4.52074e-05 0)
(-1.7893e-06 -2.33664e-05 0)
(-2.42036e-05 1.22185e-05 0)
(-8.63643e-05 0.00010373 0)
(-0.000192145 0.000231772 0)
(-0.000345478 0.000382502 0)
(-0.000549364 0.000545514 0)
(-0.000805156 0.000713095 0)
(-0.00111287 0.000879654 0)
(-0.00147148 0.00104121 0)
(-0.00187914 0.00119496 0)
(-0.00233336 0.00133904 0)
(-0.00283121 0.00147225 0)
(-0.00336939 0.00159388 0)
(-0.00394444 0.0017036 0)
(-0.00455275 0.00180134 0)
(-0.00519068 0.00188724 0)
(-0.00585457 0.00196156 0)
(-0.00654084 0.00202467 0)
(-0.00724598 0.00207701 0)
(-0.00796659 0.00211901 0)
(-0.00869937 0.00215117 0)
(-0.00944117 0.00217396 0)
(-0.0101889 0.00218785 0)
(-0.0109398 0.00219328 0)
(-0.0116909 0.00219067 0)
(-0.0124397 0.00218042 0)
(-0.0131836 0.00216289 0)
(-0.0139201 0.00213841 0)
(-0.0146469 0.00210728 0)
(-0.0153618 0.00206976 0)
(-0.0160625 0.00202609 0)
(-0.0167471 0.00197646 0)
(-0.0174134 0.00192107 0)
(-0.0180595 0.00186007 0)
(-0.0186835 0.00179359 0)
(-0.0192835 0.00172177 0)
(-0.0198577 0.0016447 0)
(-0.0204044 0.0015625 0)
(-0.0209216 0.00147525 0)
(-0.0214079 0.00138307 0)
(-0.0218615 0.00128605 0)
(-0.0222808 0.00118432 0)
(-0.0226642 0.00107799 0)
(-0.0230102 0.000967201 0)
(-0.0233174 0.000852127 0)
(-0.0235844 0.000732951 0)
(-0.0238099 0.000609889 0)
(-0.0239926 0.000483185 0)
(-0.0241315 0.000353118 0)
(-0.0242253 0.00022 0)
(-0.0242734 8.41834e-05 0)
(-0.0242748 -5.39433e-05 0)
(-0.0242289 -0.000193951 0)
(-0.0241353 -0.00033537 0)
(-0.0239935 -0.000477692 0)
(-0.0238035 -0.000620367 0)
(-0.0235653 -0.00076281 0)
(-0.0232791 -0.000904396 0)
(-0.0229453 -0.00104447 0)
(-0.0225647 -0.00118234 0)
(-0.0221382 -0.0013173 0)
(-0.0216668 -0.0014486 0)
(-0.021152 -0.0015755 0)
(-0.0205954 -0.00169721 0)
(-0.019999 -0.00181298 0)
(-0.0193647 -0.00192202 0)
(-0.0186951 -0.00202356 0)
(-0.0179928 -0.00211684 0)
(-0.0172606 -0.00220114 0)
(-0.0165017 -0.00227574 0)
(-0.0157194 -0.00233996 0)
(-0.0149173 -0.00239318 0)
(-0.014099 -0.0024348 0)
(-0.0132685 -0.00246431 0)
(-0.0124299 -0.00248123 0)
(-0.0115874 -0.00248518 0)
(-0.0107453 -0.00247583 0)
(-0.00990793 -0.00245295 0)
(-0.00907983 -0.00241638 0)
(-0.00826543 -0.00236608 0)
(-0.00746921 -0.00230207 0)
(-0.00669557 -0.00222452 0)
(-0.00594883 -0.00213369 0)
(-0.0052332 -0.00202996 0)
(-0.00455271 -0.00191386 0)
(-0.00391116 -0.00178605 0)
(-0.00331207 -0.00164739 0)
(-0.00275865 -0.00149891 0)
(-0.00225369 -0.0013419 0)
(-0.0017995 -0.00117793 0)
(-0.00139783 -0.00100893 0)
(-0.00104974 -0.000837278 0)
(-0.000755528 -0.000665958 0)
(-0.000514572 -0.000498687 0)
(-0.000325187 -0.00034016 0)
(-0.00018448 -0.000196321 0)
(-8.8171e-05 -7.47182e-05 0)
(-3.0388e-05 1.5135e-05 0)
(-3.53363e-06 6.12871e-05 0)
(1.612e-06 4.76893e-05 0)
(-4.53126e-06 -7.84971e-06 0)
(-4.02771e-05 6.65861e-05 0)
(-0.000129142 0.000203173 0)
(-0.00027131 0.000380955 0)
(-0.000468803 0.00058455 0)
(-0.000723744 0.000802116 0)
(-0.00103681 0.00102466 0)
(-0.0014075 0.00124549 0)
(-0.0018344 0.00145973 0)
(-0.00231534 0.00166387 0)
(-0.00284756 0.00185548 0)
(-0.00342781 0.00203297 0)
(-0.00405254 0.00219535 0)
(-0.00471795 0.00234211 0)
(-0.00542012 0.00247309 0)
(-0.00615505 0.00258839 0)
(-0.00691876 0.00268832 0)
(-0.00770729 0.00277329 0)
(-0.00851676 0.00284381 0)
(-0.00934339 0.00290047 0)
(-0.0101835 0.00294385 0)
(-0.0110336 0.00297456 0)
(-0.0118902 0.0029932 0)
(-0.0127501 0.00300035 0)
(-0.0136101 0.00299655 0)
(-0.0144672 0.00298232 0)
(-0.0153185 0.00295815 0)
(-0.0161613 0.00292446 0)
(-0.0169928 0.00288165 0)
(-0.0178105 0.00283008 0)
(-0.018612 0.00277006 0)
(-0.0193948 0.00270187 0)
(-0.0201566 0.00262577 0)
(-0.0208951 0.00254197 0)
(-0.0216082 0.00245066 0)
(-0.0222937 0.00235202 0)
(-0.0229495 0.00224621 0)
(-0.0235736 0.00213336 0)
(-0.0241641 0.00201364 0)
(-0.0247189 0.00188717 0)
(-0.0252362 0.00175413 0)
(-0.0257142 0.00161466 0)
(-0.0261511 0.00146895 0)
(-0.0265452 0.0013172 0)
(-0.0268947 0.00115965 0)
(-0.0271983 0.000996557 0)
(-0.0274543 0.000828223 0)
(-0.0276615 0.000654988 0)
(-0.0278185 0.000477239 0)
(-0.0279242 0.000295407 0)
(-0.0279775 0.000109974 0)
(-0.0279777 -7.85265e-05 0)
(-0.0279239 -0.000269508 0)
(-0.0278157 -0.000462332 0)
(-0.0276526 -0.000656304 0)
(-0.0274346 -0.000850679 0)
(-0.0271618 -0.00104466 0)
(-0.0268343 -0.00123741 0)
(-0.0264527 -0.00142803 0)
(-0.0260179 -0.0016156 0)
(-0.0255308 -0.00179915 0)
(-0.0249928 -0.00197768 0)
(-0.0244055 -0.00215019 0)
(-0.0237707 -0.00231563 0)
(-0.0230905 -0.00247296 0)
(-0.0223674 -0.00262113 0)
(-0.0216041 -0.00275912 0)
(-0.0208036 -0.00288591 0)
(-0.0199692 -0.00300051 0)
(-0.0191043 -0.00310197 0)
(-0.0182127 -0.00318939 0)
(-0.0172984 -0.00326191 0)
(-0.0163657 -0.00331876 0)
(-0.0154189 -0.00335924 0)
(-0.0144625 -0.00338273 0)
(-0.0135015 -0.00338871 0)
(-0.0125404 -0.00337676 0)
(-0.0115844 -0.00334657 0)
(-0.0106384 -0.00329795 0)
(-0.00970739 -0.00323085 0)
(-0.00879635 -0.00314534 0)
(-0.00791022 -0.00304164 0)
(-0.00705381 -0.00292015 0)
(-0.00623181 -0.00278141 0)
(-0.00544868 -0.00262615 0)
(-0.00470864 -0.00245531 0)
(-0.00401558 -0.00227008 0)
(-0.00337303 -0.00207187 0)
(-0.00278407 -0.00186245 0)
(-0.00225123 -0.00164394 0)
(-0.00177644 -0.00141891 0)
(-0.00136094 -0.00119051 0)
(-0.00100513 -0.000962552 0)
(-0.000708496 -0.000739765 0)
(-0.000469503 -0.000527962 0)
(-0.000285464 -0.000334347 0)
(-0.000152396 -0.000167867 0)
(-6.48576e-05 -3.95743e-05 0)
(-1.64543e-05 3.69006e-05 0)
(-6.04987e-07 4.36e-05 0)
(-7.18564e-06 1.60121e-05 0)
(-5.63093e-05 0.00014242 0)
(-0.000172332 0.00033469 0)
(-0.000351682 0.000570998 0)
(-0.000594322 0.000834922 0)
(-0.000901318 0.00111355 0)
(-0.00127251 0.00139687 0)
(-0.00170674 0.00167726 0)
(-0.00220208 0.00194907 0)
(-0.00275596 0.00220814 0)
(-0.00336527 0.00245154 0)
(-0.00402647 0.00267726 0)
(-0.00473569 0.00288404 0)
(-0.00548886 0.0030712 0)
(-0.00628175 0.00323847 0)
(-0.00711007 0.00338591 0)
(-0.00796951 0.00351382 0)
(-0.0088558 0.0036227 0)
(-0.00976473 0.00371312 0)
(-0.0106922 0.00378577 0)
(-0.0116342 0.00384137 0)
(-0.0125869 0.00388065 0)
(-0.0135465 0.00390434 0)
(-0.0145094 0.00391316 0)
(-0.0154721 0.00390778 0)
(-0.0164314 0.00388886 0)
(-0.017384 0.00385699 0)
(-0.0183269 0.00381273 0)
(-0.019257 0.00375657 0)
(-0.0201715 0.00368897 0)
(-0.0210677 0.00361034 0)
(-0.0219428 0.00352104 0)
(-0.0227943 0.0034214 0)
(-0.0236196 0.0033117 0)
(-0.0244163 0.00319219 0)
(-0.0251821 0.00306311 0)
(-0.0259145 0.00292468 0)
(-0.0266114 0.00277709 0)
(-0.0272705 0.00262054 0)
(-0.0278896 0.00245523 0)
(-0.0284667 0.00228137 0)
(-0.0289997 0.00209919 0)
(-0.0294867 0.00190892 0)
(-0.0299258 0.00171085 0)
(-0.0303151 0.00150528 0)
(-0.0306529 0.00129256 0)
(-0.0309376 0.0010731 0)
(-0.0311677 0.000847348 0)
(-0.0313417 0.000615806 0)
(-0.0314585 0.000379042 0)
(-0.0315169 0.000137687 0)
(-0.0315159 -0.000107562 0)
(-0.0314548 -0.000355944 0)
(-0.031333 -0.000606627 0)
(-0.0311502 -0.000858712 0)
(-0.0309061 -0.00111124 0)
(-0.0306009 -0.00136317 0)
(-0.030235 -0.00161342 0)
(-0.0298088 -0.00186084 0)
(-0.0293234 -0.00210424 0)
(-0.0287798 -0.00234237 0)
(-0.0281796 -0.00257395 0)
(-0.0275245 -0.00279768 0)
(-0.0268165 -0.00301222 0)
(-0.0260582 -0.00321623 0)
(-0.025252 -0.00340838 0)
(-0.0244011 -0.00358733 0)
(-0.0235087 -0.0037518 0)
(-0.0225785 -0.0039005 0)
(-0.0216142 -0.00403223 0)
(-0.0206202 -0.00414583 0)
(-0.0196007 -0.00424022 0)
(-0.0185604 -0.00431439 0)
(-0.0175041 -0.00436747 0)
(-0.016437 -0.00439866 0)
(-0.0153642 -0.0044073 0)
(-0.014291 -0.00439288 0)
(-0.0132228 -0.004355 0)
(-0.0121651 -0.00429345 0)
(-0.0111234 -0.00420816 0)
(-0.0101032 -0.00409927 0)
(-0.00910988 -0.00396708 0)
(-0.00814863 -0.00381212 0)
(-0.00722461 -0.00363511 0)
(-0.00634268 -0.00343705 0)
(-0.00550742 -0.00321917 0)
(-0.00472309 -0.00298301 0)
(-0.00399351 -0.00273044 0)
(-0.00332202 -0.00246372 0)
(-0.00271141 -0.00218556 0)
(-0.00216381 -0.00189922 0)
(-0.00168065 -0.00160859 0)
(-0.00126252 -0.0013184 0)
(-0.000909121 -0.0010343 0)
(-0.000619156 -0.000763185 0)
(-0.000390295 -0.000513406 0)
(-0.00021901 -0.000295138 0)
(-0.000100458 -0.000120706 0)
(-2.96418e-05 -5.02894e-06 0)
(-2.80172e-06 3.26913e-05 0)
(-9.71752e-06 4.80415e-05 0)
(-7.19675e-05 0.000239684 0)
(-0.000214996 0.000498495 0)
(-0.00043156 0.000802333 0)
(-0.000719527 0.00113416 0)
(-0.00107881 0.00148034 0)
(-0.00150832 0.00183008 0)
(-0.0020061 0.00217507 0)
(-0.00256964 0.00250897 0)
(-0.00319589 0.00282709 0)
(-0.00388133 0.00312602 0)
(-0.00462207 0.00340342 0)
(-0.00541395 0.00365777 0)
(-0.00625258 0.00388819 0)
(-0.00713346 0.00409432 0)
(-0.00805201 0.00427618 0)
(-0.00900364 0.00443408 0)
(-0.0099838 0.00456854 0)
(-0.010988 0.00468024 0)
(-0.0120118 0.00476996 0)
(-0.013051 0.00483854 0)
(-0.0141013 0.00488684 0)
(-0.0151587 0.00491572 0)
(-0.0162195 0.00492604 0)
(-0.0172797 0.00491863 0)
(-0.0183357 0.00489424 0)
(-0.0193842 0.00485362 0)
(-0.0204217 0.00479743 0)
(-0.0214449 0.00472629 0)
(-0.0224509 0.00464076 0)
(-0.0234364 0.00454134 0)
(-0.0243987 0.00442849 0)
(-0.0253348 0.00430261 0)
(-0.0262421 0.00416406 0)
(-0.0271177 0.00401317 0)
(-0.0279591 0.00385023 0)
(-0.0287638 0.00367553 0)
(-0.0295293 0.00348932 0)
(-0.0302531 0.00329186 0)
(-0.0309329 0.00308342 0)
(-0.0315664 0.00286426 0)
(-0.0321514 0.00263468 0)
(-0.0326857 0.002395 0)
(-0.0331673 0.00214556 0)
(-0.0335942 0.00188678 0)
(-0.0339644 0.0016191 0)
(-0.0342764 0.00134303 0)
(-0.0345283 0.00105914 0)
(-0.0347186 0.000768085 0)
(-0.0348461 0.00047057 0)
(-0.0349095 0.000167391 0)
(-0.0349078 -0.000140576 0)
(-0.0348402 -0.000452374 0)
(-0.034706 -0.000766961 0)
(-0.0345049 -0.00108321 0)
(-0.0342367 -0.00139992 0)
(-0.0339015 -0.00171581 0)
(-0.0334996 -0.00202951 0)
(-0.0330319 -0.00233961 0)
(-0.0324992 -0.00264459 0)
(-0.0319029 -0.00294293 0)
(-0.0312444 -0.00323303 0)
(-0.0305258 -0.00351327 0)
(-0.0297493 -0.00378198 0)
(-0.0289175 -0.00403752 0)
(-0.0280333 -0.00427822 0)
(-0.0271 -0.00450244 0)
(-0.0261212 -0.00470856 0)
(-0.0251007 -0.00489501 0)
(-0.0240429 -0.00506029 0)
(-0.0229521 -0.00520298 0)
(-0.0218332 -0.00532172 0)
(-0.0206912 -0.00541531 0)
(-0.0195314 -0.00548263 0)
(-0.0183592 -0.00552273 0)
(-0.0171803 -0.00553479 0)
(-0.0160004 -0.00551818 0)
(-0.0148254 -0.00547244 0)
(-0.0136612 -0.00539732 0)
(-0.0125138 -0.00529276 0)
(-0.011389 -0.00515894 0)
(-0.0102926 -0.00499628 0)
(-0.00923046 -0.00480545 0)
(-0.00820791 -0.00458739 0)
(-0.00723026 -0.00434336 0)
(-0.00630243 -0.00407492 0)
(-0.00542902 -0.00378401 0)
(-0.00461413 -0.00347296 0)
(-0.0038614 -0.00314457 0)
(-0.00317385 -0.00280216 0)
(-0.00255388 -0.00244967 0)
(-0.00200313 -0.00209179 0)
(-0.00152245 -0.00173407 0)
(-0.00111182 -0.00138312 0)
(-0.000770292 -0.00104679 0)
(-0.000495988 -0.000734463 0)
(-0.000285941 -0.000457368 0)
(-0.000136005 -0.000228848 0)
(-4.2646e-05 -6.47495e-05 0)
(-4.90703e-06 1.50081e-05 0)
(-1.21168e-05 8.79581e-05 0)
(-8.70856e-05 0.000357972 0)
(-0.000256587 0.000694254 0)
(-0.000509884 0.00107475 0)
(-0.00084279 0.00148215 0)
(-0.00125404 0.00190238 0)
(-0.00174151 0.00232415 0)
(-0.00230243 0.00273859 0)
(-0.00293359 0.00313887 0)
(-0.0036314 0.00351985 0)
(-0.0043919 0.00387774 0)
(-0.0052108 0.0042099 0)
(-0.00608361 0.00451457 0)
(-0.00700563 0.00479073 0)
(-0.00797208 0.00503791 0)
(-0.0089781 0.00525611 0)
(-0.0100188 0.00544563 0)
(-0.0110895 0.00560706 0)
(-0.0121853 0.00574114 0)
(-0.0133015 0.00584875 0)
(-0.0144337 0.00593086 0)
(-0.0155774 0.00598845 0)
(-0.0167283 0.00602252 0)
(-0.0178822 0.00603408 0)
(-0.0190352 0.00602407 0)
(-0.0201833 0.0059934 0)
(-0.0213229 0.00594295 0)
(-0.0224502 0.0058735 0)
(-0.0235619 0.00578578 0)
(-0.0246546 0.00568048 0)
(-0.025725 0.00555818 0)
(-0.0267699 0.00541945 0)
(-0.0277863 0.00526476 0)
(-0.0287711 0.00509457 0)
(-0.0297216 0.00490928 0)
(-0.0306348 0.00470926 0)
(-0.031508 0.00449485 0)
(-0.0323386 0.00426637 0)
(-0.0331238 0.00402416 0)
(-0.0338612 0.00376855 0)
(-0.0345484 0.00349987 0)
(-0.0351828 0.00321849 0)
(-0.0357622 0.00292482 0)
(-0.0362843 0.0026193 0)
(-0.0367471 0.00230242 0)
(-0.0371485 0.00197476 0)
(-0.0374865 0.00163693 0)
(-0.0377596 0.00128965 0)
(-0.0379659 0.000933696 0)
(-0.038104 0.000569958 0)
(-0.0381728 0.000199407 0)
(-0.038171 -0.000176891 0)
(-0.0380977 -0.000557765 0)
(-0.0379524 -0.000941947 0)
(-0.0377346 -0.00132807 0)
(-0.0374441 -0.00171467 0)
(-0.0370811 -0.00210018 0)
(-0.036646 -0.00248295 0)
(-0.0361395 -0.00286126 0)
(-0.0355627 -0.0032333 0)
(-0.0349169 -0.00359719 0)
(-0.0342038 -0.00395101 0)
(-0.0334256 -0.00429279 0)
(-0.0325846 -0.00462053 0)
(-0.0316837 -0.00493222 0)
(-0.0307259 -0.00522587 0)
(-0.0297148 -0.00549948 0)
(-0.0286542 -0.00575109 0)
(-0.0275483 -0.00597884 0)
(-0.0264016 -0.00618088 0)
(-0.025219 -0.00635551 0)
(-0.0240056 -0.00650111 0)
(-0.0227668 -0.00661621 0)
(-0.0215082 -0.00669948 0)
(-0.0202357 -0.00674978 0)
(-0.0189553 -0.00676613 0)
(-0.0176732 -0.00674779 0)
(-0.0163957 -0.00669421 0)
(-0.0151291 -0.0066051 0)
(-0.0138798 -0.00648043 0)
(-0.012654 -0.00632043 0)
(-0.011458 -0.00612563 0)
(-0.0102979 -0.00589687 0)
(-0.00917962 -0.00563533 0)
(-0.00810866 -0.00534254 0)
(-0.00709034 -0.00502042 0)
(-0.00612957 -0.00467133 0)
(-0.00523078 -0.00429807 0)
(-0.00439788 -0.003904 0)
(-0.00363419 -0.00349308 0)
(-0.00294235 -0.00306994 0)
(-0.00232431 -0.00264001 0)
(-0.00178121 -0.00220969 0)
(-0.00131337 -0.00178644 0)
(-0.000920268 -0.00137902 0)
(-0.00060054 -0.000997722 0)
(-0.00035184 -0.000654644 0)
(-0.000170761 -0.000363921 0)
(-5.52071e-05 -0.000142039 0)
(-6.88733e-06 -9.23796e-06 0)
(-1.43807e-05 0.000135432 0)
(-0.000101587 0.000496674 0)
(-0.000296809 0.000921293 0)
(-0.000586032 0.0013876 0)
(-0.000963105 0.00187829 0)
(-0.00142558 0.00237911 0)
(-0.00197029 0.00287846 0)
(-0.00259357 0.00336714 0)
(-0.0032915 0.00383795 0)
(-0.00405988 0.0042854 0)
(-0.00489424 0.00470543 0)
(-0.00578991 0.00509514 0)
(-0.00674199 0.00545261 0)
(-0.0077455 0.00577668 0)
(-0.00879533 0.00606681 0)
(-0.00988637 0.00632296 0)
(-0.0110135 0.00654547 0)
(-0.0121717 0.00673497 0)
(-0.0133559 0.00689229 0)
(-0.0145612 0.00701841 0)
(-0.0157828 0.00711441 0)
(-0.0170161 0.00718141 0)
(-0.0182565 0.00722054 0)
(-0.0194997 0.00723295 0)
(-0.0207414 0.00721973 0)
(-0.0219774 0.00718194 0)
(-0.023204 0.00712056 0)
(-0.0244171 0.00703652 0)
(-0.0256131 0.00693067 0)
(-0.0267885 0.0068038 0)
(-0.0279397 0.00665662 0)
(-0.0290633 0.00648978 0)
(-0.0301562 0.00630386 0)
(-0.031215 0.00609938 0)
(-0.0322368 0.00587684 0)
(-0.0332185 0.00563668 0)
(-0.0341571 0.00537931 0)
(-0.0350498 0.00510513 0)
(-0.0358937 0.00481455 0)
(-0.0366863 0.00450797 0)
(-0.0374248 0.0041858 0)
(-0.0381066 0.00384849 0)
(-0.0387293 0.00349654 0)
(-0.0392906 0.00313049 0)
(-0.039788 0.00275094 0)
(-0.0402196 0.00235857 0)
(-0.0405832 0.00195413 0)
(-0.040877 0.00153849 0)
(-0.0410992 0.00111258 0)
(-0.0412483 0.000677469 0)
(-0.0413229 0.000234308 0)
(-0.0413218 -0.000215621 0)
(-0.0412441 -0.000670923 0)
(-0.0410891 -0.00113009 0)
(-0.0408563 -0.00159149 0)
(-0.0405456 -0.00205338 0)
(-0.040157 -0.0025139 0)
(-0.0396911 -0.0029711 0)
(-0.0391485 -0.00342293 0)