/*--------------------------------*- C++ -*----------------------------------*\
| =========                 |                                                 |
| \\      /  F ield         | OpenFOAM: The Open Source CFD Toolbox           |
|  \\    /   O peration     | Version:  2512                                  |
|   \\  /    A nd           | Website:  www.openfoam.com                      |
|    \\/     M anipulation  |                                                 |
\*---------------------------------------------------------------------------*/
FoamFile
{
    version     2.0;
    format      ascii;
    arch        "LSB;label=32;scalar=64";
    class       volScalarField;
    location    "0.32";
    object      p;
}
// * * * * * * * * * * * * * * * * * * * * * * * * * * * * * * * * * * * * * //

dimensions      [0 2 -2 0 0 0 0];

internalField   nonuniform List<scalar> 
10000
(
5.93881e-09
1.4768e-06
-2.63756e-05
-8.38053e-05
-0.000164432
-0.000262218
-0.000371762
-0.000488283
-0.000607703
-0.000726608
-0.000842162
-0.000952041
-0.00105434
-0.00114752
-0.00123032
-0.00130177
-0.00136108
-0.00140764
-0.00144098
-0.00146079
-0.00146683
-0.00145895
-0.00143707
-0.00140116
-0.00135123
-0.00128733
-0.00120952
-0.00111791
-0.00101262
-0.000893786
-0.000761579
-0.00061617
-0.000457747
-0.000286524
-0.000102745
9.33174e-05
0.000301367
0.000521072
0.000752054
0.000993895
0.00124613
0.00150827
0.00177977
0.00206002
0.00234836
0.00264408
0.0029464
0.00325449
0.00356743
0.00388427
0.00420398
0.00452547
0.00484763
0.00516926
0.00548913
0.00580601
0.00611858
0.00642556
0.00672562
0.00701742
0.00729965
0.00757099
0.00783018
0.00807599
0.00830726
0.00852287
0.0087218
0.00890311
0.00906597
0.00920965
0.00933356
0.00943723
0.00952035
0.00958277
0.00962447
0.00964562
0.00964655
0.00962777
0.00958997
0.00953401
0.00946095
0.00937203
0.00926866
0.00915242
0.00902507
0.00888853
0.00874489
0.00859643
0.0084456
0.00829503
0.00814754
0.00800612
0.00787401
0.00775462
0.00765154
0.00756837
0.00750842
0.00747429
0.00746715
0.00748084
-1.57605e-06
-2.18469e-07
-2.53397e-05
-7.4703e-05
-0.000142839
-0.000225471
-0.000318521
-0.000418141
-0.000520894
-0.000623777
-0.000724232
-0.000820091
-0.000909537
-0.000991072
-0.00106346
-0.00112568
-0.00117693
-0.00121655
-0.00124405
-0.00125903
-0.00126122
-0.00125042
-0.00122651
-0.00118941
-0.0011391
-0.00107558
-0.000998897
-0.00090912
-0.000806341
-0.00069069
-0.000562311
-0.000421364
-0.000268024
-0.000102501
7.49696e-05
0.000264122
0.000464664
0.000676265
0.000898555
0.00113113
0.00137353
0.00162527
0.00188582
0.00215458
0.00243093
0.00271416
0.00300355
0.00329827
0.00359745
0.00390018
0.00420547
0.00451231
0.0048196
0.00512625
0.00543108
0.00573292
0.00603056
0.00632277
0.0066083
0.00688592
0.00715438
0.00741248
0.00765904
0.00789292
0.00811305
0.0083184
0.00850802
0.00868107
0.00883678
0.0089745
0.0090937
0.00919398
0.00927505
0.00933681
0.00937928
0.00940263
0.00940721
0.00939351
0.0093622
0.00931414
0.00925034
0.00917199
0.00908041
0.00897711
0.00886375
0.00874213
0.00861423
0.00848218
0.00834823
0.00821478
0.0080844
0.00795975
0.00784365
0.00773901
0.00764874
0.00757562
0.007522
0.0074896
0.00748078
0.00749453
2.59251e-05
2.45033e-05
-6.99035e-07
-4.6422e-05
-0.000107838
-0.000181509
-0.000264181
-0.000352654
-0.00044398
-0.000535552
-0.000625074
-0.000710562
-0.000790336
-0.000862973
-0.000927275
-0.00098226
-0.00102711
-0.00106118
-0.00108395
-0.001095
-0.00109403
-0.00108083
-0.00105522
-0.00101711
-0.000966453
-0.00090323
-0.00082746
-0.00073919
-0.0006385
-0.000525501
-0.000400319
-0.000263099
-0.000114013
4.67412e-05
0.000218939
0.000402323
0.000596604
0.000801457
0.00101652
0.0012414
0.00147566
0.00171882
0.00197035
0.00222968
0.00249619
0.00276923
0.00304808
0.00333194
0.00361998
0.00391131
0.00420499
0.00450005
0.00479544
0.00509011
0.00538295
0.00567284
0.00595862
0.00623914
0.00651321
0.00677964
0.00703727
0.00728496
0.0075216
0.00774613
0.00795753
0.00815484
0.00833718
0.00850376
0.00865387
0.00878691
0.00890239
0.00899995
0.00907935
0.00914051
0.00918345
0.00920838
0.00921563
0.00920569
0.00917922
0.00913705
0.00908017
0.0090097
0.00892693
0.00883326
0.00873028
0.00861972
0.00850343
0.0083834
0.00826173
0.00814062
0.00802242
0.00790954
0.00780443
0.0077097
0.0076278
0.00756106
0.00751143
0.0074805
0.00747189
0.00748759
8.29996e-05
7.3488e-05
4.44424e-05
-1.45655e-06
-6.04802e-05
-0.000129726
-0.00020644
-0.000287907
-0.000371615
-0.00045529
-0.000536898
-0.000614669
-0.000687068
-0.000752779
-0.000810688
-0.000859855
-0.000899501
-0.000928991
-0.000947815
-0.000955563
-0.000951925
-0.000936666
-0.000909611
-0.000870641
-0.00081969
-0.000756727
-0.000681751
-0.000594799
-0.000495942
-0.000385274
-0.000262904
-0.000128964
1.63787e-05
0.000172934
0.000340494
0.000518813
0.000707609
0.000906561
0.00111532
0.0013335
0.00156068
0.00179641
0.00204016
0.00229137
0.00254947
0.0028138
0.00308367
0.00335831
0.00363692
0.00391864
0.00420257
0.00448777
0.00477324
0.00505794
0.00534084
0.00562085
0.00589687
0.00616778
0.00643244
0.00668972
0.00693851
0.00717772
0.00740631
0.00762324
0.00782755
0.00801834
0.00819478
0.00835611
0.00850166
0.00863088
0.00874329
0.00883859
0.00891655
0.00897709
0.00902028
0.0090463
0.0090555
0.00904835
0.00902552
0.0089878
0.00893614
0.00887163
0.00879549
0.00870908
0.0086139
0.0085116
0.00840393
0.00829276
0.00818004
0.00806782
0.00795823
0.00785348
0.0077558
0.00766746
0.00759066
0.00752752
0.0074798
0.00744914
0.00743959
0.00745411
0.000163775
0.000141641
0.000105518
5.66988e-05
-2.67532e-06
-7.01836e-05
-0.000143468
-0.000220287
-0.000298515
-0.000376197
-0.000451579
-0.000523093
-0.000589369
-0.000649223
-0.000701635
-0.000745734
-0.000780794
-0.000806213
-0.000821502
-0.000826271
-0.000820213
-0.000803083
-0.000774708
-0.000734964
-0.000683771
-0.000621083
-0.000546887
-0.000461215
-0.000364128
-0.000255701
-0.000136032
-5.24424e-06
0.000136508
0.000289044
0.000452167
0.000625645
0.000809205
0.00100254
0.0012053
0.00141714
0.00163764
0.00186635
0.00210278
0.00234639
0.00259662
0.00285284
0.00311436
0.00338047
0.00365037
0.00392325
0.00419823
0.00447441
0.00475081
0.00502646
0.00530034
0.00557142
0.00583864
0.0061009
0.00635713
0.00660622
0.00684711
0.00707876
0.00730017
0.00751035
0.00770837
0.00789337
0.00806456
0.00822122
0.00836271
0.0084885
0.00859815
0.00869137
0.00876796
0.00882786
0.00887112
0.00889794
0.00890867
0.00890378
0.00888391
0.00884983
0.00880246
0.00874284
0.00867215
0.00859168
0.00850288
0.0084073
0.00830661
0.00820253
0.00809691
0.00799163
0.00788866
0.00779
0.00769768
0.00761371
0.00754008
0.00747868
0.00743117
0.00739914
0.00738632
0.00739547
0.00026268
0.000224959
0.000179296
0.000125313
6.32925e-05
-4.72987e-06
-7.67694e-05
-0.000150996
-0.000225645
-0.000299073
-0.000369784
-0.000436419
-0.000497781
-0.000552823
-0.000600634
-0.00064043
-0.000671546
-0.00069343
-0.00070563
-0.00070778
-0.000699583
-0.000680804
-0.000651274
-0.00061087
-0.000559501
-0.000497117
-0.000423705
-0.000339285
-0.000243906
-0.000137632
-2.0551e-05
0.000107221
0.000245544
0.000394256
0.000553165
0.000722046
0.000900643
0.00108866
0.00128579
0.00149166
0.0017059
0.00192806
0.00215766
0.00239421
0.00263715
0.00288588
0.00313973
0.003398
0.00365995
0.00392478
0.00419165
0.00445966
0.0047279
0.00499541
0.00526122
0.00552434
0.00578372
0.00603832
0.00628707
0.00652894
0.00676289
0.0069879
0.00720302
0.00740729
0.00759981
0.00777975
0.00794635
0.00809893
0.00823685
0.00835961
0.00846681
0.00855815
0.00863346
0.00869268
0.00873587
0.00876323
0.00877509
0.00877193
0.00875437
0.00872316
0.00867918
0.00862342
0.00855703
0.00848125
0.00839745
0.00830712
0.00821181
0.00811317
0.00801289
0.00791273
0.0078145
0.00772003
0.00763115
0.00754969
0.00747742
0.00741603
0.00736705
0.00733199
0.00731372
0.00731422
0.000374591
0.000319557
0.000262617
0.000201691
0.000135168
6.47198e-05
-7.95586e-06
-8.13963e-05
-0.000154179
-0.000224944
-0.000292432
-0.000355497
-0.000413111
-0.000464366
-0.000508468
-0.00054473
-0.000572564
-0.000591474
-0.000601054
-0.00060097
-0.000590946
-0.000570768
-0.000540276
-0.000499347
-0.00044789
-0.000385859
-0.000313243
-0.000230053
-0.000136323
-3.21128e-05
8.24963e-05
0.000207401
0.000342474
0.000487564
0.000642498
0.000807057
0.000980995
0.00116404
0.0013559
0.00155623
0.00176465
0.00198074
0.00220406
0.00243413
0.0026704
0.0029123
0.00315919
0.00341039
0.00366518
0.00392279
0.0041824
0.00444315
0.00470414
0.00496447
0.0052232
0.00547934
0.00573189
0.00597982
0.0062221
0.00645774
0.00668571
0.00690503
0.00711476
0.00731398
0.00750181
0.00767745
0.00784015
0.00798923
0.0081241
0.00824426
0.00834932
0.00843901
0.00851315
0.00857167
0.00861465
0.00864229
0.00865491
0.00865299
0.00863711
0.00860801
0.00856653
0.00851365
0.00845045
0.00837813
0.00829801
0.00821148
0.00812004
0.00802521
0.00792858
0.00783181
0.00773654
0.00764447
0.00755726
0.00747656
0.00740395
0.00734094
0.00728894
0.00724931
0.00722383
0.00721345
0.000494941
0.0004217
0.000352348
0.000283186
0.000210722
0.000136342
6.15091e-05
-1.26468e-05
-8.50068e-05
-0.000154466
-0.000219994
-0.000280644
-0.000335554
-0.000383958
-0.000425181
-0.000458632
-0.00048381
-0.000500288
-0.000507707
-0.000505768
-0.000494231
-0.000472911
-0.000441654
-0.000400345
-0.000348906
-0.000287296
-0.000215501
-0.000133531
-4.14116e-05
6.08075e-05
0.000173048
0.000295217
0.000427203
0.00056887
0.000720049
0.000880538
0.00105011
0.00122851
0.00141546
0.00161064
0.00181368
0.00202419
0.00224175
0.00246589
0.0026961
0.00293181
0.00317242
0.00341726
0.00366565
0.00391683
0.00417001
0.00442435
0.004679
0.00493306
0.00518562
0.00543573
0.00568239
0.00592461
0.00616138
0.00639173
0.00661465
0.00682918
0.00703438
0.00722938
0.00741329
0.00758534
0.00774478
0.00789095
0.00802327
0.00814124
0.00824448
0.00833274
0.00840582
0.00846366
0.00850634
0.00853404
0.0085471
0.00854595
0.00853118
0.0085035
0.00846373
0.00841281
0.00835179
0.00828182
0.00820415
0.00812012
0.00803113
0.00793865
0.00784416
0.00774919
0.00765529
0.00756402
0.00747689
0.00739539
0.00732094
0.00725488
0.00719848
0.00715299
0.00711899
0.00709626
0.000619786
0.000528012
0.000445585
0.000367264
0.000287793
0.000208325
0.000130118
5.40198e-05
-1.91152e-05
-8.84204e-05
-0.000153076
-0.000212318
-0.00026545
-0.000311841
-0.000350937
-0.000382249
-0.000405362
-0.000419918
-0.000425613
-0.000422194
-0.00040946
-0.000387249
-0.000355428
-0.000313896
-0.000262592
-0.000201483
-0.000130552
-4.98023e-05
4.07346e-05
0.000141013
0.000250971
0.00037053
0.000499584
0.000638004
0.000785637
0.000942301
0.00110779
0.00128186
0.00146425
0.00165465
0.00185273
0.00205812
0.00227042
0.00248917
0.00271388
0.00294402
0.00317899
0.00341818
0.0036609
0.00390641
0.00415394
0.00440269
0.00465183
0.0049005
0.00514779
0.00539276
0.00563444
0.00587186
0.00610403
0.00632999
0.00654873
0.00675933
0.00696085
0.00715241
0.00733316
0.0075023
0.00765912
0.00780294
0.00793319
0.00804938
0.00815114
0.00823818
0.00831034
0.00836754
0.00840984
0.00843744
0.00845063
0.00844987
0.0084357
0.00840882
0.00837004
0.00832026
0.00826049
0.00819183
0.0081155
0.00803276
0.00794497
0.0078535
0.00775977
0.00766519
0.00757123
0.00747932
0.00739086
0.0073072
0.00722959
0.00715922
0.00709728
0.00704489
0.00700141
0.00696548
0.000745766
0.000635495
0.000539647
0.000451561
0.000364316
0.000278874
0.000196336
0.000117308
4.2407e-05
-2.77157e-05
-9.24285e-05
-0.00015114
-0.000203307
-0.000248435
-0.000286086
-0.000315877
-0.000337473
-0.000350587
-0.000354973
-0.000350438
-0.000336815
-0.000313964
-0.000281781
-0.000240194
-0.000189152
-0.000128627
-5.86082e-05
2.08982e-05
0.000109866
0.000208253
0.000316007
0.000433061
0.000559319
0.000694663
0.000838951
0.000992023
0.00115369
0.00132373
0.00150189
0.00168789
0.00188141
0.00208212
0.00228963
0.00250351
0.00272329
0.00294845
0.00317842
0.00341261
0.00365035
0.00389091
0.00413356
0.00437752
0.00462198
0.00486608
0.00510894
0.00534964
0.00558723
0.00582073
0.00604918
0.0062716
0.00648704
0.00669453
0.00689317
0.00708207
0.00726038
0.0074273
0.00758211
0.00772414
0.00785282
0.00796765
0.00806824
0.00815433
0.00822572
0.00828234
0.00832424
0.00835158
0.00836468
0.00836395
0.00834993
0.00832331
0.00828486
0.00823547
0.00817609
0.00810782
0.0080318
0.00794927
0.00786152
0.00776986
0.00767561
0.00758015
0.00748484
0.00739101
0.00729996
0.00721291
0.00713099
0.00705525
0.00698681
0.00692672
0.00687312
0.00682355
0.00087001
0.000741489
0.000632114
0.000533892
0.000438329
0.000346255
0.000258651
0.000175905
9.84252e-05
2.66783e-05
-3.88794e-05
-9.78179e-05
-0.000149733
-0.000194264
-0.000231087
-0.000259915
-0.000280494
-0.000292612
-0.000296091
-0.00029078
-0.000276556
-0.000253316
-0.000220981
-0.000179504
-0.000128854
-6.90088e-05
3.75494e-08
7.82745e-05
0.000165676
0.000262207
0.000367825
0.000482471
0.000606059
0.000738482
0.000879617
0.00102932
0.00118742
0.00135371
0.00152796
0.00170991
0.00189927
0.00209573
0.00229892
0.00250842
0.00272379
0.00294454
0.00317013
0.00339996
0.00363338
0.0038697
0.00410821
0.00434814
0.00458869
0.00482904
0.0050683
0.00530557
0.0055399
0.00577033
0.00599591
0.00621565
0.0064286
0.00663381
0.00683035
0.00701734
0.00719393
0.0073593
0.00751273
0.00765354
0.00778113
0.00789502
0.00799481
0.00808021
0.00815102
0.00820716
0.00824864
0.00827564
0.00828844
0.00828745
0.00827321
0.00824636
0.00820766
0.00815796
0.00809822
0.00802948
0.00795285
0.00786954
0.00778077
0.00768781
0.00759193
0.00749442
0.00739659
0.00729968
0.00720491
0.00711339
0.00702616
0.00694414
0.00686843
0.00680001
0.00673585
0.0066725
0.000990024
0.000843632
0.000720788
0.000612226
0.000507984
0.000408806
0.000315577
0.000228494
0.000147786
7.375e-05
6.6852e-06
-5.31234e-05
-0.00010541
-0.00014993
-0.000186469
-0.000214837
-0.00023486
-0.000246396
-0.000249335
-0.000243574
-0.000229027
-0.000205634
-0.000173355
-0.000132161
-8.20333e-05
-2.29647e-05
4.50406e-05
0.000121968
0.000207797
0.000302501
0.000406042
0.000518366
0.000639397
0.000769044
0.000907205
0.00105375
0.00120852
0.00137134
0.00154198
0.00172022
0.0019058
0.00209841
0.00229771
0.00250331
0.0027148
0.00293169
0.00315346
0.00337955
0.0036093
0.00384207
0.00407713
0.00431377
0.00455118
0.00478855
0.00502502
0.00525967
0.00549157
0.00571976
0.00594329
0.00616118
0.00637246
0.00657617
0.00677139
0.00695722
0.00713279
0.00729729
0.00744995
0.00759011
0.00771714
0.00783053
0.00792988
0.00801489
0.00808534
0.00814111
0.00818222
0.00820883
0.0082212
0.00821972
0.00820492
0.00817741
0.00813794
0.00808734
0.00802654
0.00795657
0.0078785
0.0077935
0.00770275
0.00760749
0.00750893
0.00740833
0.00730692
0.00720589
0.00710638
0.00700944
0.00691601
0.00682694
0.00674332
0.00666608
0.00659112
0.00651401
0.00110363
0.000939819
0.000803656
0.000684686
0.000571554
0.00046494
0.000365671
0.000273777
0.000189324
0.000112457
4.3336e-05
-1.7887e-05
-7.10763e-05
-0.000116102
-0.000152841
-0.00018119
-0.000201072
-0.000212412
-0.000215149
-0.000209235
-0.000194633
-0.000171325
-0.000139303
-9.85562e-05
-4.90859e-05
9.10012e-06
7.59887e-05
0.000151564
0.000235808
0.000328702
0.000430211
0.000540286
0.000658864
0.000785874
0.000921227
0.00106481
0.00121648
0.00137607
0.0015434
0.00171826
0.00190041
0.00208956
0.0022854
0.00248756
0.00269564
0.0029092
0.00312772
0.00335065
0.00357737
0.00380722
0.00403954
0.00427359
0.00450861
0.00474376
0.0049782
0.00521102
0.00544129
0.00566805
0.00589035
0.00610719
0.00631759
0.0065206
0.00671526
0.00690068
0.00707596
0.00724025
0.00739278
0.00753286
0.00765985
0.00777321
0.00787253
0.00795747
0.0080278
0.00808337
0.0081242
0.00815041
0.00816226
0.00816013
0.00814449
0.00811596
0.00807527
0.00802323
0.00796076
0.00788886
0.00780859
0.00772107
0.00762748
0.007529
0.00742683
0.00732217
0.00721622
0.00711012
0.00700496
0.00690175
0.00680135
0.00670457
0.00661248
0.00652603
0.00644011
0.00634937
0.00120893
0.00102816
0.000878891
0.000749539
0.000627407
0.000513145
0.00040754
0.000310476
0.000221872
0.000141743
7.0116e-05
7.01407e-06
-4.75313e-05
-9.34957e-05
-0.000130854
-0.000159593
-0.000179706
-0.000191187
-0.000194033
-0.000188249
-0.00017385
-0.000150855
-0.000119282
-7.91479e-05
-3.04731e-05
2.67196e-05
9.24109e-05
0.000166585
0.000249227
0.000340318
0.000439826
0.000547714
0.000663935
0.000788432
0.000921129
0.00106193
0.0012107
0.00136731
0.0015316
0.00170338
0.00188244
0.0020685
0.00226128
0.00246044
0.0026656
0.00287633
0.00309213
0.00331247
0.00353674
0.00376432
0.00399455
0.00422672
0.00446005
0.00469372
0.00492688
0.00515865
0.00538808
0.00561421
0.00583606
0.00605265
0.00626297
0.00646605
0.00666093
0.00684668
0.00702238
0.00718715
0.00734021
0.00748081
0.0076083
0.00772214
0.00782185
0.00790708
0.00797756
0.00803315
0.00807382
0.00809969
0.00811099
0.00810807
0.00809138
0.00806153
0.00801922
0.00796528
0.0079006
0.00782615
0.00774299
0.00765222
0.00755498
0.00745245
0.0073458
0.0072362
0.00712483
0.0070128
0.00690117
0.00679091
0.00668286
0.00657776
0.00647674
0.00638077
0.00628378
0.00617958
0.0013042
0.00110694
0.000944823
0.000805172
0.000674022
0.00055199
0.000439842
0.000337344
0.000244282
0.000160541
8.60366e-05
2.06802e-05
-3.56012e-05
-8.28808e-05
-0.000121227
-0.000150708
-0.000171384
-0.000183313
-0.000186552
-0.000181166
-0.000167213
-0.000144746
-0.000113811
-7.44527e-05
-2.67143e-05
2.93709e-05
9.37821e-05
0.000166503
0.000247513
0.000336795
0.000434326
0.00054008
0.000654026
0.000776119
0.000906294
0.00104447
0.00119054
0.0013444
0.0015059
0.0016749
0.00185117
0.00203449
0.00222459
0.00242117
0.00262386
0.00283224
0.00304583
0.00326412
0.00348653
0.00371246
0.00394124
0.00417219
0.00440452
0.00463742
0.00487006
0.00510152
0.00533088
0.00555715
0.00577935
0.00599648
0.0062075
0.00641144
0.00660732
0.00679415
0.006971
0.00713696
0.0072912
0.00743295
0.00756154
0.00767636
0.00777693
0.00786284
0.00793382
0.00798968
0.00803037
0.008056
0.00806675
0.00806296
0.00804507
0.00801366
0.00796942
0.00791317
0.00784579
0.00776824
0.00768157
0.00758685
0.00748524
0.00737789
0.00726597
0.00715063
0.00703304
0.00691429
0.00679543
0.00667742
0.00656107
0.00644712
0.00633675
0.00623099
0.00612286
0.00600537
0.00138788
0.0011746
0.000999915
0.00085009
0.000709952
0.000580104
0.000461289
0.000353166
0.000255409
0.00016779
9.01095e-05
2.21888e-05
-3.61467e-05
-8.5063e-05
-0.000124715
-0.000155242
-0.000176773
-0.000189429
-0.000193331
-0.000188592
-0.000175311
-0.000153575
-0.000123463
-8.50474e-05
-3.83846e-05
1.64825e-05
7.95269e-05
0.000150729
0.000230068
0.000317528
0.000413095
0.000516758
0.000628498
0.000748277
0.000876046
0.00101174
0.00115529
0.0013066
0.00146556
0.00163203
0.00180581
0.00198672
0.00217451
0.00236889
0.00256953
0.00277601
0.00298788
0.00320464
0.00342575
0.00365061
0.00387857
0.00410894
0.00434094
0.00457378
0.0048066
0.00503852
0.00526856
0.00549575
0.00571907
0.00593752
0.00615005
0.00635564
0.00655329
0.00674197
0.00692072
0.00708858
0.0072447
0.00738827
0.00751856
0.00763493
0.00773685
0.00782389
0.00789573
0.00795217
0.00799313
0.00801866
0.00802894
0.00802427
0.00800507
0.00797191
0.00792549
0.00786659
0.0077961
0.00771496
0.00762421
0.00752494
0.00741829
0.00730541
0.00718748
0.00706566
0.00694109
0.00681489
0.0066881
0.00656168
0.00643645
0.00631315
0.00619304
0.00607724
0.00595789
0.00582722
0.00145857
0.00122973
0.00104274
0.000882898
0.000733843
0.000596175
0.00047063
0.000356758
0.00025413
0.000162424
8.13406e-05
1.0604e-05
-5.00533e-05
-0.000100881
-0.000142108
-0.000173944
-0.000196588
-0.000210229
-0.000215039
-0.000211176
-0.00019878
-0.000177974
-0.000148868
-0.000111555
-6.61062e-05
-1.25705e-05
4.90172e-05
0.00011863
0.000196247
0.00028186
0.000375468
0.000477069
0.000586651
0.000704187
0.000829647
0.000962995
0.00110418
0.00125313
0.00140975
0.00157392
0.00174549
0.00192429
0.00211011
0.00230266
0.00250164
0.00270664
0.00291725
0.00313299
0.00335333
0.00357769
0.00380541
0.00403582
0.00426815
0.0045016
0.00473533
0.00496841
0.00519989
0.00542875
0.00565399
0.00587455
0.00608938
0.00629743
0.00649763
0.00668896
0.00687037
0.00704089
0.00719961
0.00734568
0.00747833
0.00759685
0.00770068
0.00778934
0.00786248
0.00791986
0.00796137
0.00798701
0.00799695
0.00799144
0.00797091
0.00793591
0.0078871
0.00782528
0.00775131
0.00766615
0.00757082
0.00746643
0.00735413
0.00723508
0.00711046
0.00698146
0.00684922
0.00671487
0.00657948
0.00644403
0.00630936
0.00617623
0.00604601
0.00591989
0.00578921
0.00564544
0.00151495
0.00127097
0.00107198
0.000902285
0.000744413
0.000598959
0.000466656
0.000346958
0.00023934
0.000143393
5.87286e-05
-1.50289e-05
-7.82266e-05
-0.00013119
-0.00017422
-0.0002076
-0.000231594
-0.000246451
-0.000252392
-0.000249618
-0.000238308
-0.000218623
-0.0001907
-0.000154648
-0.000110546
-5.84561e-05
1.57427e-06
6.9516e-05
0.000145353
0.000229088
0.000320729
0.000420275
0.000527725
0.000643069
0.000766304
0.000897414
0.00103637
0.00118311
0.00133757
0.00149966
0.00166927
0.00184624
0.00203038
0.00222144
0.00241912
0.00262305
0.00283284
0.00304802
0.0032681
0.00349248
0.00372053
0.00395158
0.00418487
0.00441961
0.00465492
0.0048899
0.00512355
0.00535485
0.00558278
0.00580626
0.0060242
0.0062355
0.00643908
0.00663384
0.00681872
0.00699269
0.00715477
0.00730408
0.00743977
0.0075611
0.00766744
0.00775828
0.00783322
0.00789197
0.00793437
0.0079604
0.00797018
0.00796397
0.00794214
0.00790524
0.00785392
0.00778896
0.00771122
0.00762166
0.00752131
0.0074113
0.00729279
0.00716697
0.00703504
0.00689819
0.00675761
0.00661446
0.00646983
0.00632475
0.00618009
0.00603666
0.00589594
0.00575921
0.00561703
0.00546013
0.0015558
0.0012971
0.00108638
0.000907013
0.00074044
0.000587259
0.000448202
0.000322642
0.000209959
0.00010966
2.12695e-05
-5.56691e-05
-0.000121581
-0.000176867
-0.000221898
-0.000257028
-0.000282586
-0.000298868
-0.000306143
-0.000304656
-0.000294629
-0.000276251
-0.000249677
-0.000215033
-0.000172415
-0.000121897
-6.35325e-05
2.65091e-06
7.66447e-05
0.000158456
0.000248096
0.000345573
0.000450898
0.000564087
0.000685157
0.000814111
0.000950933
0.0010956
0.00124806
0.00140826
0.00157611
0.0017515
0.00193424
0.0021241
0.00232081
0.00252404
0.00273341
0.00294849
0.00316877
0.00339368
0.0036226
0.00385487
0.00408974
0.0043264
0.00456398
0.00480155
0.00503811
0.00527262
0.00550402
0.00573122
0.00595309
0.00616848
0.00637626
0.0065753
0.00676447
0.0069427
0.00710896
0.00726228
0.00740176
0.00752661
0.00763613
0.00772977
0.00780706
0.00786766
0.00791138
0.00793815
0.00794805
0.00794131
0.00791829
0.00787951
0.00782561
0.00775735
0.00767561
0.00758133
0.00747558
0.0073595
0.00723427
0.00710113
0.00696128
0.00681598
0.00666643
0.00651383
0.00635934
0.00620403
0.00604884
0.00589463
0.00574297
0.0055953
0.00544138
0.00527124
0.00157997
0.00130691
0.00108474
0.000895896
0.000720754
0.000559923
0.000414146
0.000282715
0.000164925
6.01953e-05
-3.20288e-05
-0.000112273
-0.00018104
-0.000238804
-0.000286012
-0.00032308
-0.000350386
-0.00036828
-0.00037708
-0.000377073
-0.000368514
-0.000351616
-0.000326553
-0.00029347
-0.000252478
-0.000203663
-0.000147078
-8.27479e-05
-1.06768e-05
6.9144e-05
0.000156729
0.000252101
0.000355293
0.00046634
0.000585276
0.000712124
0.000846889
0.00098957
0.00114016
0.00129863
0.00146492
0.00163893
0.0018205
0.00200943
0.00220548
0.00240834
0.00261767
0.00283303
0.00305395
0.00327987
0.00351019
0.00374424
0.00398128
0.00422048
0.00446099
0.00470184
0.00494204
0.00518051
0.00541618
0.00564792
0.00587454
0.00609486
0.0063077
0.00651188
0.00670622
0.00688957
0.00706084
0.00721901
0.00736309
0.00749223
0.00760567
0.00770279
0.00778306
0.00784609
0.00789162
0.00791954
0.0079299
0.0079229
0.00789887
0.0078583
0.00780181
0.00773017
0.00764425
0.007545
0.00743352
0.00731096
0.00717857
0.00703758
0.00688926
0.0067349
0.00657576
0.0064131
0.00624813
0.006082
0.00591572
0.0057502
0.00558716
0.00542816
0.00526222
0.00507862
0.00158637
0.00129932
0.00106594
0.000867794
0.000684223
0.000515841
0.000363397
0.000226111
0.00010319
-6.0203e-06
-0.000102147
-0.00018579
-0.000257531
-0.000317914
-0.000367452
-0.000406617
-0.000435841
-0.000455524
-0.000466031
-0.000467685
-0.000460768
-0.000445517
-0.000422127
-0.000390761
-0.000351545
-0.00030457
-0.000249886
-0.000187517
-0.000117468
-3.97278e-05
4.5729e-05
0.000138943
0.000239969
0.000348858
0.000465662
0.000590423
0.000723174
0.000863946
0.00101276
0.00116962
0.00133449
0.00150728
0.00168788
0.00187611
0.00207176
0.00227456
0.00248417
0.00270019
0.00292216
0.00314954
0.00338173
0.00361808
0.00385785
0.00410021
0.00434428
0.00458911
0.00483366
0.00507686
0.00531759
0.00555467
0.00578689
0.00601301
0.0062318
0.00644202
0.00664243
0.00683182
0.00700901
0.00717291
0.00732247
0.00745674
0.00757491
0.00767627
0.00776023
0.00782633
0.00787425
0.00790383
0.00791508
0.00790816
0.00788337
0.00784117
0.00778217
0.00770713
0.00761691
0.0075125
0.00739501
0.00726564
0.00712565
0.00697634
0.00681901
0.00665501
0.00648568
0.00631235
0.0061363
0.00595875
0.00578079
0.00560341
0.00542848
0.00525772
0.00507936
0.00488198
0.00157394
0.00127323
0.00102889
0.000821618
0.000629765
0.000453943
0.0002949
0.000151784
2.37341e-05
-8.99789e-05
-0.000190055
-0.000277176
-0.000351992
-0.000415114
-0.000467114
-0.000508519
-0.000539819
-0.00056146
-0.000573845
-0.000577331
-0.000572225
-0.000558787
-0.000537236
-0.00050775
-0.000470465
-0.000425471
-0.000372823
-0.000312544
-0.000244641
-0.000169091
-8.58564e-05
5.12449e-06
0.000103922
0.000210607
0.000325246
0.000447907
0.000578656
0.000717555
0.000864658
0.00101998
0.00118352
0.00135522
0.001535
0.00172272
0.0019182
0.00212118
0.00233137
0.00254837
0.00277175
0.00300099
0.00323551
0.00347466
0.00371769
0.00396378
0.00421205
0.00446151
0.00471114
0.00495982
0.0052064
0.00544966
0.00568834
0.00592116
0.00614682
0.00636403
0.00657147
0.00676785
0.00695192
0.00712251
0.00727848
0.00741881
0.0075426
0.00764905
0.0077375
0.0078074
0.00785838
0.00789022
0.00790288
0.00789647
0.00787126
0.00782768
0.00776632
0.00768792
0.00759337
0.00748367
0.00735996
0.00722347
0.00707551
0.00691741
0.00675057
0.00657639
0.00639628
0.00621166
0.00602391
0.00583432
0.00564406
0.00545422
0.00526684
0.00508382
0.00489259
0.00468097
0.00154168
0.0012276
0.000972548
0.000756331
0.000556335
0.000373181
0.000207618
5.87224e-05
-7.44352e-05
-0.000192658
-0.000296723
-0.000387385
-0.00046536
-0.000531324
-0.000585904
-0.000629686
-0.000663211
-0.000686968
-0.000701394
-0.000706876
-0.000703746
-0.000692293
-0.000672753
-0.000645316
-0.000610122
-0.000567266
-0.000516806
-0.000458768
-0.000393153
-0.000319926
-0.000239031
-0.000150388
-5.39129e-05
5.04813e-05
0.000162887
0.000283403
0.000412125
0.000549147
0.000694544
0.000848363
0.00101062
0.00118132
0.00136038
0.00154773
0.0017432
0.00194658
0.00215758
0.00237584
0.00260096
0.00283243
0.00306969
0.00331209
0.00355889
0.00380926
0.00406232
0.00431709
0.00457249
0.0048274
0.00508062
0.0053309
0.00557693
0.00581736
0.00605086
0.00627604
0.00649151
0.0066959
0.00688789
0.00706619
0.00722959
0.00737699
0.00750737
0.00761985
0.00771368
0.00778822
0.00784304
0.00787784
0.00789253
0.00788716
0.00786196
0.00781733
0.00775385
0.00767224
0.0075734
0.00745835
0.00732826
0.0071844
0.00702812
0.00686083
0.00668399
0.00649908
0.00630762
0.0061111
0.005911
0.00570871
0.00550549
0.00530257
0.00510214
0.00490628
0.00470161
0.00447517
0.00148858
0.00116144
0.000895895
0.00067091
0.000462915
0.000272541
0.000100548
-5.40615e-05
-0.000192296
-0.00031503
-0.000423113
-0.000517365
-0.00059857
-0.000667465
-0.000724738
-0.000771027
-0.000806919
-0.000832941
-0.000849564
-0.000857204
-0.000856223
-0.00084693
-0.000829577
-0.000804363
-0.000771433
-0.000730889
-0.000682792
-0.000627169
-0.000564008
-0.000493259
-0.000414848
-0.000328685
-0.000234667
-0.000132685
-2.26169e-05
9.56669e-05
0.000222293
0.000357379
0.000501027
0.000653316
0.0008143
0.000984008
0.00116242
0.00134948
0.00154506
0.00174898
0.00196098
0.00218074
0.00240787
0.00264189
0.00288225
0.00312831
0.00337935
0.00363453
0.00389296
0.00415366
0.00441553
0.00467741
0.00493808
0.00519622
0.0054505
0.0056995
0.00594182
0.00617599
0.00640056
0.00661405
0.00681504
0.00700217
0.00717412
0.00732967
0.00746772
0.00758727
0.00768748
0.00776762
0.00782715
0.00786573
0.00788317
0.00787948
0.00785484
0.0078096
0.00774432
0.00765973
0.00755672
0.00743633
0.00729977
0.00714833
0.00698345
0.00680659
0.00661929
0.00642314
0.00621975
0.00601071
0.00579759
0.00558191
0.00536506
0.00514835
0.0049342
0.00472485
0.00450607
0.0042641
0.0014137
0.00107377
0.000797939
0.00056436
0.000348515
0.000151045
-2.72844e-05
-0.000187543
-0.000330819
-0.000458057
-0.000570175
-0.000668059
-0.000752556
-0.000824468
-0.000884539
-0.000933458
-0.000971851
-0.00100028
-0.00101926
-0.00102922
-0.00103057
-0.00102362
-0.00100863
-0.000985826
-0.00095535
-0.000917314
-0.000871781
-0.000818768
-0.00075825
-0.000690162
-0.000614419
-0.000530916
-0.000439528
-0.000340119
-0.000232535
-0.000116617
7.78844e-06
0.000140825
0.000282627
0.000433306
0.00059296
0.000761656
0.000939414
0.00112621
0.00132195
0.0015265
0.00173964
0.00196106
0.00219042
0.00242725
0.00267103
0.00292112
0.00317681
0.00343729
0.00370164
0.00396887
0.00423788
0.00450746
0.00477637
0.00504324
0.00530668
0.00556523
0.0058174
0.00606165
0.00629642
0.00652016
0.00673134
0.00692848
0.00711017
0.00727507
0.00742197
0.00754975
0.00765745
0.00774425
0.00780952
0.00785281
0.00787386
0.00787261
0.00784918
0.00780389
0.00773726
0.00765001
0.00754303
0.00741739
0.00727433
0.00711519
0.00694145
0.00675468
0.00655651
0.00634861
0.0061327
0.0059105
0.00568368
0.0054539
0.00522268
0.00499145
0.00476281
0.00453923
0.00430558
0.00404722
0.00131609
0.000963617
0.000677714
0.000435713
0.000212172
7.73212e-06
-0.00017684
-0.000342684
-0.000490962
-0.00062269
-0.000738851
-0.000840401
-0.000928251
-0.00100326
-0.00106623
-0.0011179
-0.00115892
-0.0011899
-0.00121139
-0.00122385
-0.0012277
-0.00122328
-0.00121086
-0.00119067
-0.00116286
-0.00112755
-0.0010848
-0.00103462
-0.00097696
-0.000911754
-0.000838902
-0.00075828
-0.000669737
-0.000573103
-0.000468197
-0.000354834
-0.000232832
-0.000102017
3.77804e-05